
                                 *****************
                                 * O   R   C   A *
                                 *****************

                                            #,                                       
                                            ###                                      
                                            ####                                     
                                            #####                                    
                                            ######                                   
                                           ########,                                 
                                     ,,################,,,,,                         
                               ,,#################################,,                 
                          ,,##########################################,,             
                       ,#########################################, ''#####,          
                    ,#############################################,,   '####,        
                  ,##################################################,,,,####,       
                ,###########''''           ''''###############################       
              ,#####''   ,,,,##########,,,,          '''####'''          '####       
            ,##' ,,,,###########################,,,                        '##       
           ' ,,###''''                  '''############,,,                           
         ,,##''                                '''############,,,,        ,,,,,,###''
      ,#''                                            '''#######################'''  
     '                                                          ''''####''''         
             ,#######,   #######,   ,#######,      ##                                
            ,#'     '#,  ##    ##  ,#'     '#,    #''#        ######   ,####,        
            ##       ##  ##   ,#'  ##            #'  '#       #        #'  '#        
            ##       ##  #######   ##           ,######,      #####,   #    #        
            '#,     ,#'  ##    ##  '#,     ,#' ,#      #,         ##   #,  ,#        
             '#######'   ##     ##  '#######'  #'      '#     #####' # '####'        



                  #######################################################
                  #                        -***-                        #
                  #          Department of theory and spectroscopy      #
                  #    Directorship and core code : Frank Neese         #
                  #        Max Planck Institute fuer Kohlenforschung    #
                  #                Kaiser Wilhelm Platz 1               #
                  #                 D-45470 Muelheim/Ruhr               #
                  #                      Germany                        #
                  #                                                     #
                  #                  All rights reserved                #
                  #                        -***-                        #
                  #######################################################


                         Program Version 5.0.1 -  RELEASE  -


 With contributions from (in alphabetic order):
   Daniel Aravena         : Magnetic Suceptibility
   Michael Atanasov       : Ab Initio Ligand Field Theory (pilot matlab implementation)
   Alexander A. Auer      : GIAO ZORA, VPT2 properties, NMR spectrum
   Ute Becker             : Parallelization
   Giovanni Bistoni       : ED, misc. LED, open-shell LED, HFLD
   Martin Brehm           : Molecular dynamics
   Dmytro Bykov           : SCF Hessian
   Vijay G. Chilkuri      : MRCI spin determinant printing, contributions to CSF-ICE
   Dipayan Datta          : RHF DLPNO-CCSD density
   Achintya Kumar Dutta   : EOM-CC, STEOM-CC
   Dmitry Ganyushin       : Spin-Orbit,Spin-Spin,Magnetic field MRCI
   Miquel Garcia          : C-PCM and meta-GGA Hessian, CC/C-PCM, Gaussian charge scheme
   Yang Guo               : DLPNO-NEVPT2, F12-NEVPT2, CIM, IAO-localization
   Andreas Hansen         : Spin unrestricted coupled pair/coupled cluster methods
   Benjamin Helmich-Paris : MC-RPA, TRAH-SCF, COSX integrals
   Lee Huntington         : MR-EOM, pCC
   Robert Izsak           : Overlap fitted RIJCOSX, COSX-SCS-MP3, EOM
   Marcus Kettner         : VPT2
   Christian Kollmar      : KDIIS, OOCD, Brueckner-CCSD(T), CCSD density, CASPT2, CASPT2-K
   Simone Kossmann        : Meta GGA functionals, TD-DFT gradient, OOMP2, MP2 Hessian
   Martin Krupicka        : Initial AUTO-CI
   Lucas Lang             : DCDCAS
   Marvin Lechner         : AUTO-CI (C++ implementation), FIC-MRCC
   Dagmar Lenk            : GEPOL surface, SMD
   Dimitrios Liakos       : Extrapolation schemes; Compound Job, initial MDCI parallelization
   Dimitrios Manganas     : Further ROCIS development; embedding schemes
   Dimitrios Pantazis     : SARC Basis sets
   Anastasios Papadopoulos: AUTO-CI, single reference methods and gradients
   Taras Petrenko         : DFT Hessian,TD-DFT gradient, ASA, ECA, R-Raman, ABS, FL, XAS/XES, NRVS
   Peter Pinski           : DLPNO-MP2, DLPNO-MP2 Gradient
   Christoph Reimann      : Effective Core Potentials
   Marius Retegan         : Local ZFS, SOC
   Christoph Riplinger    : Optimizer, TS searches, QM/MM, DLPNO-CCSD(T), (RO)-DLPNO pert. Triples
   Tobias Risthaus        : Range-separated hybrids, TD-DFT gradient, RPA, STAB
   Michael Roemelt        : Original ROCIS implementation
   Masaaki Saitow         : Open-shell DLPNO-CCSD energy and density
   Barbara Sandhoefer     : DKH picture change effects
   Avijit Sen             : IP-ROCIS
   Kantharuban Sivalingam : CASSCF convergence, NEVPT2, FIC-MRCI
   Bernardo de Souza      : ESD, SOC TD-DFT
   Georgi Stoychev        : AutoAux, RI-MP2 NMR, DLPNO-MP2 response
   Willem Van den Heuvel  : Paramagnetic NMR
   Boris Wezisla          : Elementary symmetry handling
   Frank Wennmohs         : Technical directorship


 We gratefully acknowledge several colleagues who have allowed us to
 interface, adapt or use parts of their codes:
   Stefan Grimme, W. Hujo, H. Kruse, P. Pracht,  : VdW corrections, initial TS optimization,
                  C. Bannwarth, S. Ehlert          DFT functionals, gCP, sTDA/sTD-DF
   Ed Valeev, F. Pavosevic, A. Kumar             : LibInt (2-el integral package), F12 methods
   Garnet Chan, S. Sharma, J. Yang, R. Olivares  : DMRG
   Ulf Ekstrom                                   : XCFun DFT Library
   Mihaly Kallay                                 : mrcc  (arbitrary order and MRCC methods)
   Jiri Pittner, Ondrej Demel                    : Mk-CCSD
   Frank Weinhold                                : gennbo (NPA and NBO analysis)
   Christopher J. Cramer and Donald G. Truhlar   : smd solvation model
   Lars Goerigk                                  : TD-DFT with DH, B97 family of functionals
   V. Asgeirsson, H. Jonsson                     : NEB implementation
   FAccTs GmbH                                   : IRC, NEB, NEB-TS, DLPNO-Multilevel, CI-OPT
                                                   MM, QMMM, 2- and 3-layer-ONIOM, Crystal-QMMM,
                                                   LR-CPCM, SF, NACMEs, symmetry and pop. for TD-DFT,
                                                   nearIR, NL-DFT gradient (VV10), updates on ESD,
                                                   ML-optimized integration grids
   S Lehtola, MJT Oliveira, MAL Marques          : LibXC Library
   Liviu Ungur et al                             : ANISO software


 Your calculation uses the libint2 library for the computation of 2-el integrals
 For citations please refer to: http://libint.valeyev.net

 Your ORCA version has been built with support for libXC version: 5.1.0
 For citations please refer to: https://tddft.org/programs/libxc/

 This ORCA versions uses:
   CBLAS   interface :  Fast vector & matrix operations
   LAPACKE interface :  Fast linear algebra routines
   SCALAPACK package :  Parallel linear algebra routines
   Shared memory     :  Shared parallel matrices
   BLAS/LAPACK       :  OpenBLAS 0.3.15  USE64BITINT DYNAMIC_ARCH NO_AFFINITY SkylakeX SINGLE_THREADED
        Core in use  :  SkylakeX
   Copyright (c) 2011-2014, The OpenBLAS Project




***************************************
The coordinates will be read from file: Cr_octahedral.xyz
***************************************


================================================================================

----- Orbital basis set information -----
Your calculation utilizes the basis: def2-SVP
   F. Weigend and R. Ahlrichs, Phys. Chem. Chem. Phys. 7, 3297 (2005).

================================================================================
                                        WARNINGS
                       Please study these warnings very carefully!
================================================================================

WARNING: Old DensityContainer found on disk!
         Will remove this file - 
         If you want to keep old densities, please start your calculation with a different basename. 


INFO   : the flag for use of the SHARK integral package has been found!

================================================================================
                                       INPUT FILE
================================================================================
NAME = single-point-calc.inp
|  1> ! TightSCF              # Strict convergence criteria
|  2> ! def2-SVP              # Basis set 
|  3> ! MoRead                
|  4> 
|  5> %MoInp "init-orbs.gbw" 
|  6> 
|  7> %casscf                 # Electronic structure method: Complete Active Space Self-Consistent Field
|  8>   nel 3                 # Number of electrons in the active space
|  9>   norb 5                # Number of orbitals in the active space
| 10>   mult 4,2              # Spin multiplicities for a state-averaged calculation
| 11>   nroots 10,40          # Number of excited states for each multiplicity
| 12>   ActOrbs CanonOrbs     # The active orbitals (d-orbitals) will be ordered by their energy
| 13> end
| 14> 
| 15> # Load molecular geometry from file `Cr_tetrahedral.xyz`
| 16> # System has charge 3 and spin multiplicity 4
| 17> * xyzfile 3 4 Cr_octahedral.xyz
| 18> 
| 19>                          ****END OF INPUT****
================================================================================

                       ****************************
                       * Single Point Calculation *
                       ****************************

---------------------------------
CARTESIAN COORDINATES (ANGSTROEM)
---------------------------------
  O      0.043505   -0.012870    2.092867
  Cr     0.000002    0.000355   -0.000356
  O      0.174571    0.017884   -2.086883
  O      2.092595    0.067849    0.066054
  O     -2.092590   -0.066054   -0.067850
  O     -0.174570    2.086883   -0.017889
  O     -0.043504   -2.092867    0.012874
  H     -0.354587    0.528001   -2.707167
  H      0.724730   -0.559775   -2.624051
  H      0.354537    2.707163   -0.528063
  H     -0.724674    2.624055    0.559817
  H      2.685036    0.376616   -0.625013
  H      2.659668   -0.203479    0.793177
  H     -0.491204   -0.557531    2.678007
  H      0.520257    0.596617    2.663952
  H      0.491152   -2.678007    0.557589
  H     -0.520198   -2.663954   -0.596657
  H     -2.685035    0.625045   -0.376539
  H     -2.659659   -0.793210    0.203399

----------------------------
CARTESIAN COORDINATES (A.U.)
----------------------------
  NO LB      ZA    FRAG     MASS         X           Y           Z
   0 O     8.0000    0    15.999    0.082212   -0.024321    3.954945
   1 Cr   24.0000    0    52.000    0.000003    0.000671   -0.000672
   2 O     8.0000    0    15.999    0.329892    0.033797   -3.943637
   3 O     8.0000    0    15.999    3.954431    0.128215    0.124823
   4 O     8.0000    0    15.999   -3.954423   -0.124824   -0.128217
   5 O     8.0000    0    15.999   -0.329890    3.943637   -0.033806
   6 O     8.0000    0    15.999   -0.082210   -3.954946    0.024329
   7 H     1.0000    0     1.008   -0.670072    0.997777   -5.115804
   8 H     1.0000    0     1.008    1.369541   -1.057821   -4.958737
   9 H     1.0000    0     1.008    0.669979    5.115796   -0.997894
  10 H     1.0000    0     1.008   -1.369436    4.958746    1.057901
  11 H     1.0000    0     1.008    5.073983    0.711702   -1.181103
  12 H     1.0000    0     1.008    5.026044   -0.384519    1.498888
  13 H     1.0000    0     1.008   -0.928241   -1.053581    5.060700
  14 H     1.0000    0     1.008    0.983143    1.127443    5.034139
  15 H     1.0000    0     1.008    0.928142   -5.060700    1.053690
  16 H     1.0000    0     1.008   -0.983032   -5.034144   -1.127518
  17 H     1.0000    0     1.008   -5.073980    1.181163   -0.711556
  18 H     1.0000    0     1.008   -5.026028   -1.498950    0.384368

--------------------------------
INTERNAL COORDINATES (ANGSTROEM)
--------------------------------
 O      0   0   0     0.000000000000     0.00000000     0.00000000
 Cr     1   0   0     2.093716039144     0.00000000     0.00000000
 O      2   1   0     2.093890598620   174.02588160     0.00000000
 O      2   1   3     2.094734133142    87.00501351   359.28230539
 O      2   1   4     2.094733212467    93.02488467   180.02947098
 O      2   1   4     2.093891105851    90.93960702   267.09590965
 O      2   1   4     2.093716492251    89.30092947    93.06592739
 H      3   2   1     0.961758461634   126.95942571   222.21600852
 H      3   2   1     0.961724353939   126.81596089    50.26953873
 H      6   2   1     0.961758393327   126.95953096   129.95885114
 H      6   2   1     0.961724343885   126.81590904   318.01226135
 H      4   2   1     0.961195649666   127.10558111   201.78840683
 H      4   2   1     0.961196858771   127.17488570    21.80642368
 H      1   2   7     0.961747721838   126.89107329   315.89635979
 H      1   2   7     0.961720183555   126.86797887   144.03469387
 H      7   2   1     0.961747644121   126.89115287   315.90180932
 H      7   2   1     0.961720171603   126.86794358   144.04013232
 H      5   2   1     0.961195652477   127.10554930   112.64135509
 H      5   2   1     0.961196855576   127.17483876   292.65935112

---------------------------
INTERNAL COORDINATES (A.U.)
---------------------------
 O      0   0   0     0.000000000000     0.00000000     0.00000000
 Cr     1   0   0     3.956549916181     0.00000000     0.00000000
 O      2   1   0     3.956879785785   174.02588160     0.00000000
 O      2   1   3     3.958473835016    87.00501351   359.28230539
 O      2   1   4     3.958472095192    93.02488467   180.02947098
 O      2   1   4     3.956880744313    90.93960702   267.09590965
 O      2   1   4     3.956550772428    89.30092947    93.06592739
 H      3   2   1     1.817460099469   126.95942571   222.21600852
 H      3   2   1     1.817395645267   126.81596089    50.26953873
 H      6   2   1     1.817459970388   126.95953096   129.95885114
 H      6   2   1     1.817395626268   126.81590904   318.01226135
 H      4   2   1     1.816396538986   127.10558111   201.78840683
 H      4   2   1     1.816398823862   127.17488570    21.80642368
 H      1   2   7     1.817439804197   126.89107329   315.89635979
 H      1   2   7     1.817387764384   126.86797887   144.03469387
 H      7   2   1     1.817439657333   126.89115287   315.90180932
 H      7   2   1     1.817387741797   126.86794358   144.04013232
 H      5   2   1     1.816396544297   127.10554930   112.64135509
 H      5   2   1     1.816398817824   127.17483876   292.65935112

---------------------
BASIS SET INFORMATION
---------------------
There are 3 groups of distinct atoms

 Group   1 Type O   : 7s4p1d contracted to 3s2p1d pattern {511/31/1}
 Group   2 Type Cr  : 14s9p5d1f contracted to 5s3p2d1f pattern {63311/531/41/1}
 Group   3 Type H   : 4s1p contracted to 2s1p pattern {31/1}

Atom   0O    basis set group =>   1
Atom   1Cr   basis set group =>   2
Atom   2O    basis set group =>   1
Atom   3O    basis set group =>   1
Atom   4O    basis set group =>   1
Atom   5O    basis set group =>   1
Atom   6O    basis set group =>   1
Atom   7H    basis set group =>   3
Atom   8H    basis set group =>   3
Atom   9H    basis set group =>   3
Atom  10H    basis set group =>   3
Atom  11H    basis set group =>   3
Atom  12H    basis set group =>   3
Atom  13H    basis set group =>   3
Atom  14H    basis set group =>   3
Atom  15H    basis set group =>   3
Atom  16H    basis set group =>   3
Atom  17H    basis set group =>   3
Atom  18H    basis set group =>   3
------------------------------------------------------------------------------
                           ORCA GTO INTEGRAL CALCULATION
------------------------------------------------------------------------------
------------------------------------------------------------------------------
                   ___                                                        
                  /   \      - P O W E R E D   B Y -                         
                 /     \                                                     
                 |  |  |   _    _      __       _____    __    __             
                 |  |  |  | |  | |    /  \     |  _  \  |  |  /  |          
                  \  \/   | |  | |   /    \    | | | |  |  | /  /          
                 / \  \   | |__| |  /  /\  \   | |_| |  |  |/  /          
                |  |  |   |  __  | /  /__\  \  |    /   |      \           
                |  |  |   | |  | | |   __   |  |    \   |  |\   \          
                \     /   | |  | | |  |  |  |  | |\  \  |  | \   \       
                 \___/    |_|  |_| |__|  |__|  |_| \__\ |__|  \__/        
                                                                              
                      - O R C A' S   B I G   F R I E N D -                    
                                      &                                       
                       - I N T E G R A L  F E E D E R -                       
                                                                              
 v1 FN, 2020, v2 2021                                                         
------------------------------------------------------------------------------


Reading SHARK input file single-point-calc.SHARKINP.tmp ... ok
----------------------
SHARK INTEGRAL PACKAGE
----------------------

Number of atoms                             ...     19
Number of basis functions                   ...    175
Number of shells                            ...     83
Maximum angular momentum                    ...      3
Integral batch strategy                     ... SHARK/LIBINT Hybrid
RI-J (if used) integral strategy            ... SPLIT-RIJ (Revised 2003 algorithm where possible)
Printlevel                                  ...      1
Contraction scheme used                     ... SEGMENTED contraction
Coulomb Range Separation                    ... NOT USED
Exchange Range Separation                   ... NOT USED
Finite Nucleus Model                        ... NOT USED
Auxiliary Coulomb fitting basis             ... NOT available
Auxiliary J/K fitting basis                 ... NOT available
Auxiliary Correlation fitting basis         ... NOT available
Auxiliary 'external' fitting basis          ... NOT available
Integral threshold                          ...     2.500000e-11
Primitive cut-off                           ...     2.500000e-12
Primitive pair pre-selection threshold      ...     2.500000e-12

Calculating pre-screening integrals         ... done (  0.0 sec) Dimension = 83
Organizing shell pair data                  ... done (  0.0 sec)
Shell pair information
Total number of shell pairs                 ...      3486
Shell pairs after pre-screening             ...      3239
Total number of primitive shell pairs       ...     13195
Primitive shell pairs kept                  ...      8650
          la=0 lb=0:   1083 shell pairs
          la=1 lb=0:   1159 shell pairs
          la=1 lb=1:    343 shell pairs
          la=2 lb=0:    340 shell pairs
          la=2 lb=1:    198 shell pairs
          la=2 lb=2:     33 shell pairs
          la=3 lb=0:     47 shell pairs
          la=3 lb=1:     27 shell pairs
          la=3 lb=2:      8 shell pairs
          la=3 lb=3:      1 shell pairs

Calculating one electron integrals          ... done (  0.0 sec)
Calculating Nuclear repulsion               ... done (  0.0 sec) ENN=    639.914590305535 Eh

SHARK setup successfully completed in   0.1 seconds

Maximum memory used throughout the entire GTOINT-calculation: 29.7 MB
-------------------------------------------------------------------------------
                                 ORCA SCF
-------------------------------------------------------------------------------

------------
SCF SETTINGS
------------
Hamiltonian:
 Ab initio Hamiltonian  Method          .... Hartree-Fock(GTOs)


General Settings:
 Integral files         IntName         .... single-point-calc
 Hartree-Fock type      HFTyp           .... CASSCF
 Total Charge           Charge          ....    3
 Multiplicity           Mult            ....    4
 Number of Electrons    NEL             ....   81
 Basis Dimension        Dim             ....  175
 Nuclear Repulsion      ENuc            ....    639.9145903055 Eh


Diagonalization of the overlap matrix:
Smallest eigenvalue                        ... 1.822e-02
Time for diagonalization                   ...    0.003 sec
Threshold for overlap eigenvalues          ... 1.000e-08
Number of eigenvalues below threshold      ... 0
Time for construction of square roots      ...    0.001 sec
Total time needed                          ...    0.004 sec

---------------------
INITIAL GUESS: MOREAD
---------------------
Guess MOs are being read from file: init-orbs.gbw
Input Geometry matches current geometry (good)
Input basis set matches current basis set (good)
MOs were renormalized
Gram-Schmidt orthogonalization of all MOs with pivot on actives
                      ------------------
                      INITIAL GUESS DONE (   0.0 sec)
                      ------------------


 ... the calculation is a CASSCF calculation -I'm leaving here GOOD LUCK!!!

-------------------------------------------------------------------------------
                              ORCA-CASSCF
-------------------------------------------------------------------------------

Setting up the integral package       ... done
Building the CAS space                ... done (10 configurations for Mult=4)
Building the CAS space                ... done (30 configurations for Mult=2)

SYSTEM-SPECIFIC SETTINGS:
Number of active electrons          ...    3
Number of active orbitals           ...    5
Total number of electrons           ...   81
Total number of orbitals            ...  175

Determined orbital ranges:
   Internal       0 -   38 (  39 orbitals)
   Active        39 -   43 (   5 orbitals)
   External      44 -  174 ( 131 orbitals)
Number of rotation parameters      ...   5959

CI-STEP:
CI strategy                         ... General CI
Number of multiplicity blocks       ...    2
BLOCK  1 WEIGHT=   0.5000
  Multiplicity                      ...    4
  #(Configurations)                 ...   10
  #(CSFs)                           ...   10
  #(Roots)                          ...   10
    ROOT=0 WEIGHT=    0.050000
    ROOT=1 WEIGHT=    0.050000
    ROOT=2 WEIGHT=    0.050000
    ROOT=3 WEIGHT=    0.050000
    ROOT=4 WEIGHT=    0.050000
    ROOT=5 WEIGHT=    0.050000
    ROOT=6 WEIGHT=    0.050000
    ROOT=7 WEIGHT=    0.050000
    ROOT=8 WEIGHT=    0.050000
    ROOT=9 WEIGHT=    0.050000

BLOCK  2 WEIGHT=   0.5000
  Multiplicity                      ...    2
  #(Configurations)                 ...   30
  #(CSFs)                           ...   40
  #(Roots)                          ...   40
    ROOT=0 WEIGHT=    0.012500
    ROOT=1 WEIGHT=    0.012500
    ROOT=2 WEIGHT=    0.012500
    ROOT=3 WEIGHT=    0.012500
    ROOT=4 WEIGHT=    0.012500
    ROOT=5 WEIGHT=    0.012500
    ROOT=6 WEIGHT=    0.012500
    ROOT=7 WEIGHT=    0.012500
    ROOT=8 WEIGHT=    0.012500
    ROOT=9 WEIGHT=    0.012500
    ROOT=10 WEIGHT=    0.012500
    ROOT=11 WEIGHT=    0.012500
    ROOT=12 WEIGHT=    0.012500
    ROOT=13 WEIGHT=    0.012500
    ROOT=14 WEIGHT=    0.012500
    ROOT=15 WEIGHT=    0.012500
    ROOT=16 WEIGHT=    0.012500
    ROOT=17 WEIGHT=    0.012500
    ROOT=18 WEIGHT=    0.012500
    ROOT=19 WEIGHT=    0.012500
    ROOT=20 WEIGHT=    0.012500
    ROOT=21 WEIGHT=    0.012500
    ROOT=22 WEIGHT=    0.012500
    ROOT=23 WEIGHT=    0.012500
    ROOT=24 WEIGHT=    0.012500
    ROOT=25 WEIGHT=    0.012500
    ROOT=26 WEIGHT=    0.012500
    ROOT=27 WEIGHT=    0.012500
    ROOT=28 WEIGHT=    0.012500
    ROOT=29 WEIGHT=    0.012500
    ROOT=30 WEIGHT=    0.012500
    ROOT=31 WEIGHT=    0.012500
    ROOT=32 WEIGHT=    0.012500
    ROOT=33 WEIGHT=    0.012500
    ROOT=34 WEIGHT=    0.012500
    ROOT=35 WEIGHT=    0.012500
    ROOT=36 WEIGHT=    0.012500
    ROOT=37 WEIGHT=    0.012500
    ROOT=38 WEIGHT=    0.012500
    ROOT=39 WEIGHT=    0.012500

  PrintLevel                        ...    1
  N(GuessMat)                       ...       512
  MaxDim(CI)                        ...        10
  MaxIter(CI)                       ...        64
  Energy Tolerance CI               ...  2.50e-09
  Residual Tolerance CI             ...  2.50e-09
  Shift(CI)                         ...  1.00e-04

INTEGRAL-TRANSFORMATION-STEP:
  Algorithm                         ... EXACT

ORBITAL-IMPROVEMENT-STEP:
  Algorithm                         ... SuperCI(PT)
  Default Parametrization           ... CAYLEY
  Act-Act rotations                 ... depends on algorithm used

  Note: SuperCI(PT) will ignore FreezeIE, FreezeAct and FreezeGrad. In general Default settings are encouraged.
        In conjunction with ShiftUp, ShiftDn or GradScaling the performance of SuperCI(PT) is less optimal.  

  MaxRot                            ... 2.00e-01 
  Max. no of vectors (DIIS)         ... 15
  DThresh (cut-off) metric          ... 1.00e-06
  Switch step at gradient           ...  3.00e-02 
  Switch step at iteration          ...        50   
  Switch step to                    ... SuperCI(PT)    

SCF-SETTINGS:
  Incremental                       ... on
  RIJCOSX approximation             ... off
  RI-JK approximation               ... off
  AO integral handling              ... DIRECT
  Integral Neglect Thresh           ...  2.50e-11
  Primitive cutoff TCut             ...  2.50e-12
  Energy convergence tolerance      ...  2.50e-08
  Orbital gradient convergence      ...  2.50e-04
  Max. number of iterations         ...        75  


FINAL ORBITALS:
  Active   Orbitals                 ... canonical 
  Internal Orbitals                 ... canonical 
  External Orbitals                 ... canonical 

------------------
CAS-SCF ITERATIONS
------------------


MACRO-ITERATION   1: 
   --- Inactive Energy E0 = -1492.01525046 Eh
CI-ITERATION   0: 
 -1498.074033549   0.000000000000 (    0.00)
 -1498.025337135   0.000000000000
 -1498.023397655   0.000000000000
 -1498.023373140   0.000000000000
 -1497.993004285   0.000000000000
 -1497.991784970   0.000000000000
 -1497.990947830   0.000000000000
 -1497.934674505   0.000000000000
 -1497.932857029   0.000000000000
 -1497.930972780   0.000000000000
   CI-PROBLEM SOLVED
   DENSITIES MADE
CI-ITERATION   0: 
 -1497.985168515   0.000000000000 (    0.00)
 -1497.984924490   0.000000000000
 -1497.980551345   0.000000000000
 -1497.980425611   0.000000000000
 -1497.980339241   0.000000000000
 -1497.952303703   0.000000000000
 -1497.952297314   0.000000000000
 -1497.951899942   0.000000000000
 -1497.948729091   0.000000000000
 -1497.936595894   0.000000000000
 -1497.935728234   0.000000000000
 -1497.935252442   0.000000000000
 -1497.931095274   0.000000000000
 -1497.930201639   0.000000000000
 -1497.929748615   0.000000000000
 -1497.920125436   0.000000000000
 -1497.918726560   0.000000000000
 -1497.907138333   0.000000000000
 -1497.906486109   0.000000000000
 -1497.906170734   0.000000000000
 -1497.884351902   0.000000000000
 -1497.884195477   0.000000000000
 -1497.882999350   0.000000000000
 -1497.882993039   0.000000000000
 -1497.882670130   0.000000000000
 -1497.881646749   0.000000000000
 -1497.851204953   0.000000000000
 -1497.849262025   0.000000000000
 -1497.848016428   0.000000000000
 -1497.847634253   0.000000000000
 -1497.846002023   0.000000000000
 -1497.845237645   0.000000000000
 -1497.826200849   0.000000000000
 -1497.825633312   0.000000000000
 -1497.825598615   0.000000000000
 -1497.738253138   0.000000000000
 -1497.737547186   0.000000000000
 -1497.729588207   0.000000000000
 -1497.729214734   0.000000000000
 -1497.726727455   0.000000000000
   CI-PROBLEM SOLVED
   DENSITIES MADE

                 <<<<<<<<<<<<<<<<<<INITIAL CI STATE CHECK>>>>>>>>>>>>>>>>>>

BLOCK  1 MULT= 4 NROOTS=10 
ROOT   0:  E=   -1498.0740335493 Eh
      0.76356 [     0]: 11100
      0.14506 [     4]: 10101
      0.06489 [     6]: 01110
      0.01262 [     3]: 10110
      0.01113 [     9]: 00111
ROOT   1:  E=   -1498.0253371347 Eh  1.325 eV  10687.6 cm**-1
      0.46192 [     6]: 01110
      0.18316 [     9]: 00111
      0.12552 [     0]: 11100
      0.10496 [     3]: 10110
      0.10437 [     4]: 10101
      0.01980 [     7]: 01101
ROOT   2:  E=   -1498.0233976552 Eh  1.378 eV  11113.3 cm**-1
      0.89190 [     2]: 11001
      0.07323 [     8]: 01011
      0.01080 [     3]: 10110
      0.01026 [     1]: 11010
      0.00580 [     5]: 10011
      0.00339 [     4]: 10101
      0.00253 [     6]: 01110
ROOT   3:  E=   -1498.0233731402 Eh  1.379 eV  11118.7 cm**-1
      0.55713 [     3]: 10110
      0.21139 [     7]: 01101
      0.12448 [     6]: 01110
      0.07985 [     4]: 10101
      0.01689 [     2]: 11001
      0.00855 [     0]: 11100
ROOT   4:  E=   -1497.9930042852 Eh  2.205 eV  17783.9 cm**-1
      0.35994 [     7]: 01101
      0.33103 [     8]: 01011
      0.14795 [     3]: 10110
      0.06205 [     5]: 10011
      0.03109 [     4]: 10101
      0.02043 [     2]: 11001
      0.01893 [     9]: 00111
      0.01885 [     0]: 11100
      0.00544 [     1]: 11010
      0.00430 [     6]: 01110
ROOT   5:  E=   -1497.9917849701 Eh  2.238 eV  18051.5 cm**-1
      0.44721 [     1]: 11010
      0.35068 [     9]: 00111
      0.08854 [     5]: 10011
      0.07281 [     6]: 01110
      0.02196 [     4]: 10101
      0.00977 [     0]: 11100
      0.00687 [     7]: 01101
ROOT   6:  E=   -1497.9909478297 Eh  2.261 eV  18235.2 cm**-1
      0.32845 [     5]: 10011
      0.29614 [     4]: 10101
      0.10481 [     6]: 01110
      0.07424 [     7]: 01101
      0.06121 [     8]: 01011
      0.05866 [     1]: 11010
      0.03079 [     0]: 11100
      0.02993 [     3]: 10110
      0.01566 [     2]: 11001
ROOT   7:  E=   -1497.9346745051 Eh  3.792 eV  30585.8 cm**-1
      0.46498 [     8]: 01011
      0.25330 [     7]: 01101
      0.11012 [     3]: 10110
      0.08032 [     5]: 10011
      0.02413 [     2]: 11001
      0.02175 [     9]: 00111
      0.01942 [     4]: 10101
      0.01285 [     0]: 11100
      0.01117 [     1]: 11010
ROOT   8:  E=   -1497.9328570288 Eh  3.842 eV  30984.7 cm**-1
      0.41389 [     9]: 00111
      0.39411 [     1]: 11010
      0.07773 [     6]: 01110
      0.06355 [     5]: 10011
      0.03667 [     4]: 10101
      0.00702 [     7]: 01101
ROOT   9:  E=   -1497.9309727795 Eh  3.893 eV  31398.2 cm**-1
      0.37060 [     5]: 10011
      0.26204 [     4]: 10101
      0.08457 [     6]: 01110
      0.07174 [     1]: 11010
      0.06588 [     8]: 01011
      0.06413 [     7]: 01101
      0.02831 [     2]: 11001
      0.02774 [     0]: 11100
      0.02471 [     3]: 10110

BLOCK  2 MULT= 2 NROOTS=40 
ROOT   0:  E=   -1497.9851685149 Eh
      0.36724 [     5]: 11100
      0.17732 [    14]: 02100
      0.16084 [     1]: 20100
      0.08530 [    19]: 01101
      0.06395 [    18]: 01110
      0.05796 [    10]: 10101
      0.02249 [     2]: 20010
      0.01252 [    15]: 02010
      0.01134 [    26]: 00111
      0.01025 [    21]: 01011
      0.00693 [     9]: 10110
      0.00692 [    27]: 00102
      0.00599 [     7]: 11001
ROOT   1:  E=   -1497.9849244902 Eh  0.007 eV     53.6 cm**-1
      0.71463 [     5]: 11100
      0.13458 [    10]: 10101
      0.05688 [    18]: 01110
      0.02874 [    24]: 00201
      0.01353 [    26]: 00111
      0.01121 [     9]: 10110
      0.01010 [    17]: 01200
      0.00557 [    16]: 02001
      0.00542 [     6]: 11010
      0.00357 [    12]: 10011
      0.00333 [     3]: 20001
      0.00269 [     2]: 20010
      0.00263 [    28]: 00021
ROOT   2:  E=   -1497.9805513450 Eh  0.126 eV   1013.4 cm**-1
      0.36951 [    17]: 01200
      0.25535 [     0]: 21000
      0.07700 [    24]: 00201
      0.06879 [     8]: 10200
      0.04201 [     4]: 12000
      0.03499 [     3]: 20001
      0.02431 [    18]: 01110
      0.02145 [    23]: 00210
      0.01954 [     6]: 11010
      0.01684 [    12]: 10011
      0.01472 [     7]: 11001
      0.00814 [    10]: 10101
      0.00797 [    20]: 01020
      0.00755 [     5]: 11100
      0.00555 [     9]: 10110
      0.00551 [    26]: 00111
      0.00489 [     2]: 20010
      0.00446 [    28]: 00021
      0.00338 [    21]: 01011
      0.00269 [    15]: 02010
ROOT   3:  E=   -1497.9804256111 Eh  0.129 eV   1040.9 cm**-1
      0.34298 [     8]: 10200
      0.23969 [     4]: 12000
      0.12541 [     7]: 11001
      0.06056 [    17]: 01200
      0.04540 [     0]: 21000
      0.04195 [     9]: 10110
      0.02263 [    15]: 02010
      0.02258 [     6]: 11010
      0.01990 [    23]: 00210
      0.01199 [     3]: 20001
      0.01053 [    21]: 01011
      0.00901 [    18]: 01110
      0.00844 [    19]: 01101
      0.00786 [    24]: 00201
      0.00733 [    14]: 02100
      0.00476 [    27]: 00102
      0.00404 [    20]: 01020
      0.00363 [    13]: 10002
      0.00354 [    10]: 10101
      0.00294 [    11]: 10020
ROOT   4:  E=   -1497.9803392411 Eh  0.131 eV   1059.9 cm**-1
      0.35067 [     5]: 11100
      0.18795 [     1]: 20100
      0.17806 [    14]: 02100
      0.06622 [    10]: 10101
      0.05911 [     9]: 10110
      0.05789 [    19]: 01101
      0.02191 [    26]: 00111
      0.02086 [     7]: 11001
      0.01200 [     3]: 20001
      0.01046 [     6]: 11010
      0.00973 [    16]: 02001
      0.00599 [    27]: 00102
      0.00433 [    25]: 00120
      0.00405 [    18]: 01110
      0.00320 [    21]: 01011
ROOT   5:  E=   -1497.9523037032 Eh  0.894 eV   7213.0 cm**-1
      0.19266 [     0]: 21000
      0.17737 [    17]: 01200
      0.15646 [    18]: 01110
      0.12186 [    10]: 10101
      0.04386 [     3]: 20001
      0.04344 [     6]: 11010
      0.03672 [     4]: 12000
      0.03514 [    24]: 00201
      0.03319 [     8]: 10200
      0.02523 [    22]: 01002
      0.02210 [     9]: 10110
      0.01889 [     7]: 11001
      0.01422 [    14]: 02100
      0.01400 [    12]: 10011
      0.01254 [    26]: 00111
      0.01050 [    23]: 00210
      0.00864 [    25]: 00120
      0.00615 [    21]: 01011
      0.00561 [    19]: 01101
      0.00448 [    16]: 02001
      0.00290 [     2]: 20010
ROOT   6:  E=   -1497.9522973137 Eh  0.894 eV   7214.4 cm**-1
      0.22711 [     8]: 10200
      0.18756 [     9]: 10110
      0.12410 [     4]: 12000
      0.10577 [     7]: 11001
      0.04433 [    19]: 01101
      0.04303 [    17]: 01200
      0.04036 [    14]: 02100
      0.02851 [    27]: 00102
      0.02427 [     0]: 21000
      0.02419 [    18]: 01110
      0.01883 [     6]: 11010
      0.01835 [    15]: 02010
      0.01679 [    10]: 10101
      0.01621 [    26]: 00111
      0.01291 [    23]: 00210
      0.01268 [    21]: 01011
      0.01099 [     5]: 11100
      0.00875 [    12]: 10011
      0.00657 [    25]: 00120
      0.00647 [     1]: 20100
      0.00474 [     3]: 20001
      0.00381 [    13]: 10002
      0.00367 [    24]: 00201
ROOT   7:  E=   -1497.9518999422 Eh  0.905 eV   7301.6 cm**-1
      0.26334 [     1]: 20100
      0.18042 [     7]: 11001
      0.16785 [    14]: 02100
      0.08209 [     9]: 10110
      0.07605 [    19]: 01101
      0.04114 [    13]: 10002
      0.03014 [    15]: 02010
      0.02985 [    25]: 00120
      0.02799 [     6]: 11010
      0.02568 [     4]: 12000
      0.01850 [     2]: 20010
      0.01769 [    12]: 10011
      0.00795 [     5]: 11100
      0.00665 [    21]: 01011
      0.00615 [    18]: 01110
      0.00591 [    23]: 00210
      0.00417 [    26]: 00111
ROOT   8:  E=   -1497.9487290912 Eh  0.992 eV   7997.5 cm**-1
      0.32041 [    23]: 00210
      0.14343 [     7]: 11001
      0.09507 [     3]: 20001
      0.09365 [    16]: 02001
      0.06635 [     2]: 20010
      0.05807 [     4]: 12000
      0.04511 [    15]: 02010
      0.03811 [    21]: 01011
      0.02917 [    12]: 10011
      0.02671 [     8]: 10200
      0.02415 [    13]: 10002
      0.01561 [    22]: 01002
      0.00801 [     0]: 21000
      0.00787 [     6]: 11010
      0.00673 [    29]: 00012
      0.00507 [    11]: 10020
      0.00350 [    24]: 00201
      0.00298 [    28]: 00021
ROOT   9:  E=   -1497.9365958941 Eh  1.322 eV  10660.5 cm**-1
      0.36604 [    18]: 01110
      0.14753 [    10]: 10101
      0.07206 [    26]: 00111
      0.06072 [     5]: 11100
      0.05750 [     0]: 21000
      0.04752 [     9]: 10110
      0.04444 [    25]: 00120
      0.03779 [    12]: 10011
      0.03245 [    17]: 01200
      0.03088 [    19]: 01101
      0.01708 [     6]: 11010
      0.01670 [    20]: 01020
      0.00866 [     1]: 20100
      0.00832 [    11]: 10020
      0.00825 [     4]: 12000
      0.00700 [    14]: 02100
      0.00682 [    21]: 01011
      0.00631 [     8]: 10200
      0.00601 [    24]: 00201
      0.00563 [     3]: 20001
      0.00519 [     7]: 11001
ROOT  10:  E=   -1497.9357282338 Eh  1.345 eV  10850.9 cm**-1
      0.34685 [    19]: 01101
      0.21352 [     9]: 10110
      0.06944 [    10]: 10101
      0.06465 [     8]: 10200
      0.06210 [    18]: 01110
      0.03316 [     1]: 20100
      0.03093 [    11]: 10020
      0.03036 [    21]: 01011
      0.02629 [     4]: 12000
      0.02425 [    25]: 00120
      0.02114 [    26]: 00111
      0.01327 [    17]: 01200
      0.01237 [    14]: 02100
      0.01137 [     7]: 11001
      0.00885 [     6]: 11010
      0.00686 [    27]: 00102
      0.00384 [    23]: 00210
      0.00373 [     2]: 20010
      0.00350 [     5]: 11100
      0.00338 [     0]: 21000
      0.00263 [    29]: 00012
ROOT  11:  E=   -1497.9352524420 Eh  1.358 eV  10955.3 cm**-1
      0.29906 [     7]: 11001
      0.12414 [     4]: 12000
      0.10200 [    13]: 10002
      0.09489 [     6]: 11010
      0.08101 [    19]: 01101
      0.06220 [    21]: 01011
      0.06112 [     1]: 20100
      0.05189 [     2]: 20010
      0.03577 [    27]: 00102
      0.02253 [    14]: 02100
      0.01901 [    29]: 00012
      0.01075 [     0]: 21000
      0.00752 [    20]: 01020
      0.00614 [    25]: 00120
      0.00529 [     3]: 20001
      0.00430 [     9]: 10110
      0.00336 [    15]: 02010
ROOT  12:  E=   -1497.9310952739 Eh  1.471 eV  11867.7 cm**-1
      0.30710 [    18]: 01110
      0.20970 [    10]: 10101
      0.14984 [    26]: 00111
      0.14595 [     5]: 11100
      0.05830 [     9]: 10110
      0.05174 [    19]: 01101
      0.01612 [    25]: 00120
      0.01398 [    17]: 01200
      0.01238 [    12]: 10011
      0.00519 [     6]: 11010
      0.00474 [     3]: 20001
      0.00450 [     1]: 20100
      0.00315 [    23]: 00210
      0.00298 [     0]: 21000
      0.00282 [    21]: 01011
ROOT  13:  E=   -1497.9302016395 Eh  1.496 eV  12063.8 cm**-1
      0.31342 [     7]: 11001
      0.21401 [    16]: 02001
      0.08979 [     6]: 11010
      0.06366 [     0]: 21000
      0.05687 [    21]: 01011
      0.05132 [     3]: 20001
      0.04717 [    22]: 01002
      0.03091 [    12]: 10011
      0.02809 [    13]: 10002
      0.01673 [    15]: 02010
      0.01445 [    20]: 01020
      0.01444 [    26]: 00111
      0.01017 [     5]: 11100
      0.00674 [     4]: 12000
      0.00600 [    11]: 10020
      0.00578 [     1]: 20100
      0.00455 [    14]: 02100
      0.00424 [    19]: 01101
      0.00387 [    10]: 10101
      0.00353 [    24]: 00201
      0.00352 [     2]: 20010
      0.00352 [    29]: 00012
      0.00258 [    18]: 01110
ROOT  14:  E=   -1497.9297486151 Eh  1.508 eV  12163.3 cm**-1
      0.49789 [     9]: 10110
      0.16802 [    19]: 01101
      0.12212 [    18]: 01110
      0.05674 [     1]: 20100
      0.04942 [    10]: 10101
      0.03956 [    25]: 00120
      0.01838 [     4]: 12000
      0.01021 [    21]: 01011
      0.00813 [    26]: 00111
      0.00529 [    29]: 00012
      0.00354 [     8]: 10200
      0.00329 [     0]: 21000
ROOT  15:  E=   -1497.9201254357 Eh  1.770 eV  14275.3 cm**-1
      0.50005 [    23]: 00210
      0.16717 [     7]: 11001
      0.10212 [    16]: 02001
      0.07670 [     3]: 20001
      0.04098 [     8]: 10200
      0.02434 [    12]: 10011
      0.01757 [    13]: 10002
      0.01518 [     4]: 12000
      0.01475 [    22]: 01002
      0.01167 [     0]: 21000
      0.00672 [     6]: 11010
      0.00552 [    24]: 00201
      0.00547 [    21]: 01011
      0.00345 [    17]: 01200
ROOT  16:  E=   -1497.9187265598 Eh  1.808 eV  14582.3 cm**-1
      0.20013 [     3]: 20001
      0.12712 [    12]: 10011
      0.12338 [    16]: 02001
      0.11302 [     6]: 11010
      0.09177 [     0]: 21000
      0.08366 [    15]: 02010
      0.07493 [     2]: 20010
      0.07254 [    24]: 00201
      0.02354 [    21]: 01011
      0.02251 [    22]: 01002
      0.01998 [     4]: 12000
      0.01393 [    17]: 01200
      0.00933 [    11]: 10020
      0.00749 [     7]: 11001
      0.00621 [    20]: 01020
      0.00252 [    28]: 00021
ROOT  17:  E=   -1497.9071383332 Eh  2.123 eV  17125.6 cm**-1
      0.20746 [    19]: 01101
      0.18560 [     9]: 10110
      0.11098 [    27]: 00102
      0.09704 [    14]: 02100
      0.05542 [    21]: 01011
      0.05199 [    11]: 10020
      0.04080 [    13]: 10002
      0.03883 [    10]: 10101
      0.02840 [    18]: 01110
      0.02470 [     5]: 11100
      0.02095 [    15]: 02010
      0.01948 [    12]: 10011
      0.01577 [    26]: 00111
      0.01539 [    29]: 00012
      0.01326 [     8]: 10200
      0.01211 [     7]: 11001
      0.00858 [     4]: 12000
      0.00854 [     1]: 20100
      0.00686 [    22]: 01002
      0.00680 [    20]: 01020
      0.00621 [    28]: 00021
      0.00586 [    16]: 02001
      0.00574 [     6]: 11010
      0.00503 [    25]: 00120
      0.00280 [     0]: 21000
      0.00261 [    17]: 01200
ROOT  18:  E=   -1497.9064861092 Eh  2.141 eV  17268.8 cm**-1
      0.31389 [    10]: 10101
      0.14932 [    18]: 01110
      0.11455 [    12]: 10011
      0.07548 [     5]: 11100
      0.06124 [    19]: 01101
      0.04784 [    26]: 00111
      0.04586 [    22]: 01002
      0.04108 [     9]: 10110
      0.03985 [    20]: 01020
      0.01610 [    14]: 02100
      0.01309 [     6]: 11010
      0.01285 [    27]: 00102
      0.01029 [    16]: 02001
      0.00898 [    15]: 02010
      0.00714 [    29]: 00012
      0.00653 [     7]: 11001
      0.00560 [     3]: 20001
      0.00520 [     1]: 20100
      0.00496 [     0]: 21000
      0.00447 [    11]: 10020
      0.00366 [    17]: 01200
      0.00345 [    25]: 00120
      0.00254 [    21]: 01011
ROOT  19:  E=   -1497.9061707340 Eh  2.150 eV  17338.0 cm**-1
      0.41785 [     6]: 11010
      0.19898 [    26]: 00111
      0.06615 [     3]: 20001
      0.05618 [    12]: 10011
      0.04505 [    20]: 01020
      0.04491 [     7]: 11001
      0.04010 [    18]: 01110
      0.02271 [     0]: 21000
      0.01666 [     5]: 11100
      0.01597 [     4]: 12000
      0.01389 [    28]: 00021
      0.01352 [    16]: 02001
      0.01217 [    11]: 10020
      0.01158 [    10]: 10101
      0.00435 [    19]: 01101
      0.00419 [     1]: 20100
      0.00418 [    27]: 00102
      0.00337 [    21]: 01011
      0.00289 [    22]: 01002
ROOT  20:  E=   -1497.8843519023 Eh  2.743 eV  22126.7 cm**-1
      0.47424 [    21]: 01011
      0.08308 [    12]: 10011
      0.07340 [    11]: 10020
      0.06926 [     7]: 11001
      0.06273 [    29]: 00012
      0.05438 [    20]: 01020
      0.03737 [    28]: 00021
      0.03558 [    15]: 02010
      0.02945 [     9]: 10110
      0.02027 [    22]: 01002
      0.01648 [     3]: 20001
      0.01529 [     4]: 12000
      0.00720 [     2]: 20010
      0.00643 [    16]: 02001
      0.00349 [    18]: 01110
      0.00337 [     6]: 11010
ROOT  21:  E=   -1497.8841954775 Eh  2.748 eV  22161.0 cm**-1
      0.72963 [    26]: 00111
      0.14438 [    18]: 01110
      0.06613 [    10]: 10101
      0.01178 [     7]: 11001
      0.00849 [     5]: 11100
      0.00785 [    19]: 01101
      0.00533 [    16]: 02001
      0.00515 [     3]: 20001
      0.00414 [    27]: 00102
      0.00354 [     9]: 10110
      0.00314 [    14]: 02100
ROOT  22:  E=   -1497.8829993498 Eh  2.780 eV  22423.5 cm**-1
      0.32780 [    22]: 01002
      0.19227 [    12]: 10011
      0.08807 [    10]: 10101
      0.08377 [    13]: 10002
      0.06920 [    21]: 01011
      0.05653 [    16]: 02001
      0.04771 [    18]: 01110
      0.03931 [     6]: 11010
      0.01889 [    15]: 02010
      0.01368 [    19]: 01101
      0.01356 [     7]: 11001
      0.00824 [     9]: 10110
      0.00765 [    28]: 00021
      0.00523 [    14]: 02100
      0.00486 [     3]: 20001
      0.00455 [     5]: 11100
      0.00399 [    11]: 10020
      0.00324 [    20]: 01020
ROOT  23:  E=   -1497.8829930395 Eh  2.780 eV  22424.9 cm**-1
      0.61369 [    25]: 00120
      0.11502 [     9]: 10110
      0.05652 [     7]: 11001
      0.04428 [     6]: 11010
      0.03173 [    15]: 02010
      0.02584 [     2]: 20010
      0.01873 [    27]: 00102
      0.01707 [    26]: 00111
      0.01673 [    13]: 10002
      0.01338 [    12]: 10011
      0.01169 [     4]: 12000
      0.00959 [    18]: 01110
      0.00509 [    20]: 01020
      0.00474 [    21]: 01011
      0.00454 [    19]: 01101
      0.00338 [    14]: 02100
      0.00252 [    10]: 10101
ROOT  24:  E=   -1497.8826701298 Eh  2.789 eV  22495.8 cm**-1
      0.19374 [    13]: 10002
      0.17309 [     7]: 11001
      0.15257 [    21]: 01011
      0.12325 [    29]: 00012
      0.06543 [    19]: 01101
      0.06329 [     9]: 10110
      0.04617 [    15]: 02010
      0.03593 [    22]: 01002
      0.03208 [    12]: 10011
      0.01902 [    14]: 02100
      0.01562 [    27]: 00102
      0.01250 [     4]: 12000
      0.01157 [    16]: 02001
      0.01140 [    26]: 00111
      0.00986 [    10]: 10101
      0.00812 [     6]: 11010
      0.00710 [     5]: 11100
      0.00606 [     8]: 10200
      0.00486 [    18]: 01110
      0.00250 [    20]: 01020
ROOT  25:  E=   -1497.8816467494 Eh  2.817 eV  22720.4 cm**-1
      0.36045 [    12]: 10011
      0.17504 [     6]: 11010
      0.12134 [    28]: 00021
      0.11087 [    21]: 01011
      0.08999 [     3]: 20001
      0.04388 [    18]: 01110
      0.02296 [    20]: 01020
      0.01248 [    10]: 10101
      0.01089 [     9]: 10110
      0.01045 [    26]: 00111
      0.00822 [    29]: 00012
      0.00631 [    11]: 10020
      0.00609 [     0]: 21000
      0.00360 [    16]: 02001
      0.00314 [    15]: 02010
      0.00310 [    13]: 10002
      0.00305 [     5]: 11100
ROOT  26:  E=   -1497.8512049534 Eh  3.645 eV  29401.6 cm**-1
      0.33551 [    24]: 00201
      0.17034 [     6]: 11010
      0.11171 [     2]: 20010
      0.07113 [    15]: 02010
      0.06523 [    17]: 01200
      0.05661 [    16]: 02001
      0.05168 [     3]: 20001
      0.03369 [    12]: 10011
      0.02432 [    21]: 01011
      0.01976 [    11]: 10020
      0.01129 [    28]: 00021
      0.01064 [    22]: 01002
      0.01056 [    20]: 01020
      0.00802 [     4]: 12000
      0.00715 [     7]: 11001
      0.00263 [    26]: 00111
ROOT  27:  E=   -1497.8492620248 Eh  3.698 eV  29828.0 cm**-1
      0.34579 [    21]: 01011
      0.23745 [    29]: 00012
      0.08036 [    15]: 02010
      0.06631 [     6]: 11010
      0.05049 [    19]: 01101
      0.04227 [     7]: 11001
      0.02902 [    25]: 00120
      0.02292 [    12]: 10011
      0.02044 [    27]: 00102
      0.01987 [    14]: 02100
      0.01338 [    23]: 00210
      0.01265 [    20]: 01020
      0.01131 [    22]: 01002
      0.01045 [    13]: 10002
      0.00703 [     1]: 20100
      0.00677 [     3]: 20001
      0.00542 [     5]: 11100
      0.00440 [     2]: 20010
      0.00363 [    16]: 02001
      0.00341 [    10]: 10101
      0.00258 [    18]: 01110
ROOT  28:  E=   -1497.8480164278 Eh  3.732 eV  30101.4 cm**-1
      0.46755 [    28]: 00021
      0.10855 [    12]: 10011
      0.07863 [     6]: 11010
      0.07593 [    20]: 01020
      0.06870 [    24]: 00201
      0.04616 [    16]: 02001
      0.02621 [    21]: 01011
      0.02485 [     5]: 11100
      0.02342 [     2]: 20010
      0.02300 [     3]: 20001
      0.01289 [    17]: 01200
      0.00960 [    29]: 00012
      0.00771 [    22]: 01002
      0.00573 [    10]: 10101
      0.00502 [    15]: 02010
      0.00484 [     7]: 11001
      0.00454 [    18]: 01110
      0.00290 [     0]: 21000
ROOT  29:  E=   -1497.8476342531 Eh  3.742 eV  30185.3 cm**-1
      0.28551 [    19]: 01101
      0.14857 [    21]: 01011
      0.12824 [     9]: 10110
      0.07485 [     8]: 10200
      0.06129 [     4]: 12000
      0.05702 [    11]: 10020
      0.03083 [    27]: 00102
      0.02895 [    10]: 10101
      0.02532 [    14]: 02100
      0.02387 [     6]: 11010
      0.02102 [    29]: 00012
      0.01775 [    26]: 00111
      0.01711 [     5]: 11100
      0.01292 [    13]: 10002
      0.01096 [    17]: 01200
      0.00802 [    12]: 10011
      0.00787 [     7]: 11001
      0.00768 [    18]: 01110
      0.00570 [     0]: 21000
      0.00529 [     2]: 20010
      0.00435 [    28]: 00021
      0.00362 [    24]: 00201
      0.00335 [    23]: 00210
      0.00311 [     1]: 20100
      0.00260 [     3]: 20001
ROOT  30:  E=   -1497.8460020230 Eh  3.787 eV  30543.5 cm**-1
      0.30701 [    10]: 10101
      0.13305 [    12]: 10011
      0.11032 [    18]: 01110
      0.07320 [    19]: 01101
      0.06326 [     0]: 21000
      0.04471 [    17]: 01200
      0.04211 [     5]: 11100
      0.03467 [     6]: 11010
      0.03412 [    21]: 01011
      0.03140 [     9]: 10110
      0.02571 [    20]: 01020
      0.01362 [    11]: 10020
      0.01344 [    13]: 10002
      0.01226 [    26]: 00111
      0.01169 [    24]: 00201
      0.00786 [     8]: 10200
      0.00605 [     7]: 11001
      0.00522 [     4]: 12000
      0.00509 [    22]: 01002
      0.00481 [    27]: 00102
      0.00472 [    23]: 00210
      0.00401 [    16]: 02001
      0.00359 [    14]: 02100
      0.00299 [    15]: 02010
ROOT  31:  E=   -1497.8452376455 Eh  3.808 eV  30711.3 cm**-1
      0.20795 [     2]: 20010
      0.16422 [     6]: 11010
      0.16281 [    29]: 00012
      0.08888 [     1]: 20100
      0.07735 [    19]: 01101
      0.07607 [    27]: 00102
      0.05180 [    25]: 00120
      0.03511 [    15]: 02010
      0.02339 [    21]: 01011
      0.01838 [    12]: 10011
      0.01738 [     0]: 21000
      0.01512 [    13]: 10002
      0.01437 [     7]: 11001
      0.01001 [     5]: 11100
      0.00953 [    11]: 10020
      0.00806 [    14]: 02100
      0.00558 [    20]: 01020
      0.00414 [    22]: 01002
      0.00314 [    28]: 00021
ROOT  32:  E=   -1497.8262008486 Eh  4.326 eV  34889.4 cm**-1
      0.54700 [    26]: 00111
      0.13245 [     6]: 11010
      0.11160 [    18]: 01110
      0.06156 [    10]: 10101
      0.02503 [     3]: 20001
      0.02300 [     7]: 11001
      0.02058 [    20]: 01020
      0.01511 [    12]: 10011
      0.00939 [    14]: 02100
      0.00881 [     9]: 10110
      0.00695 [    27]: 00102
      0.00686 [    16]: 02001
      0.00629 [     0]: 21000
      0.00532 [     4]: 12000
      0.00334 [     5]: 11100
      0.00252 [    11]: 10020
ROOT  33:  E=   -1497.8256333118 Eh  4.341 eV  35013.9 cm**-1
      0.28374 [    12]: 10011
      0.14951 [    20]: 01020
      0.12920 [    22]: 01002
      0.11468 [    10]: 10101
      0.04383 [     6]: 11010
      0.04265 [    18]: 01110
      0.03198 [    16]: 02001
      0.02536 [    11]: 10020
      0.02446 [     5]: 11100
      0.01724 [    19]: 01101
      0.01721 [    29]: 00012
      0.01591 [    26]: 00111
      0.01486 [    28]: 00021
      0.01216 [     7]: 11001
      0.01205 [     4]: 12000
      0.01159 [     9]: 10110
      0.01154 [    15]: 02010
      0.00640 [    27]: 00102
      0.00617 [    14]: 02100
      0.00609 [    21]: 01011
      0.00583 [    17]: 01200
      0.00582 [     0]: 21000
      0.00471 [    13]: 10002
ROOT  34:  E=   -1497.8255986155 Eh  4.342 eV  35021.5 cm**-1
      0.17777 [    13]: 10002
      0.13437 [    11]: 10020
      0.12644 [    21]: 01011
      0.09439 [    15]: 02010
      0.07546 [     9]: 10110
      0.07536 [    12]: 10011
      0.05350 [    19]: 01101
      0.03591 [    22]: 01002
      0.03052 [    29]: 00012
      0.03039 [    27]: 00102
      0.02487 [    14]: 02100
      0.02287 [     6]: 11010
      0.01853 [    20]: 01020
      0.01180 [    16]: 02001
      0.01070 [     8]: 10200
      0.01037 [     2]: 20010
      0.01028 [     7]: 11001
      0.01009 [    18]: 01110
      0.00958 [    10]: 10101
      0.00877 [    28]: 00021
      0.00784 [     5]: 11100
      0.00734 [    26]: 00111
      0.00700 [     4]: 12000
ROOT  35:  E=   -1497.7382531375 Eh  6.719 eV  54191.7 cm**-1
      0.31902 [    24]: 00201
      0.21370 [    28]: 00021
      0.11938 [     3]: 20001
      0.11015 [    16]: 02001
      0.06054 [    17]: 01200
      0.05131 [    20]: 01020
      0.02209 [    22]: 01002
      0.02077 [     5]: 11100
      0.01848 [     0]: 21000
      0.01464 [     2]: 20010
      0.01456 [     6]: 11010
      0.01190 [    12]: 10011
      0.00649 [    15]: 02010
      0.00443 [    11]: 10020
      0.00321 [    10]: 10101
      0.00279 [    21]: 01011
ROOT  36:  E=   -1497.7375471861 Eh  6.738 eV  54346.6 cm**-1
      0.26617 [     2]: 20010
      0.26236 [    15]: 02010
      0.24411 [    29]: 00012
      0.06435 [    23]: 00210
      0.03690 [    13]: 10002
      0.02404 [    16]: 02001
      0.02162 [    11]: 10020
      0.01690 [     7]: 11001
      0.01064 [     5]: 11100
      0.00863 [     4]: 12000
      0.00651 [     0]: 21000
      0.00647 [    27]: 00102
      0.00597 [    14]: 02100
      0.00546 [     1]: 20100
      0.00519 [     8]: 10200
      0.00255 [    12]: 10011
ROOT  37:  E=   -1497.7295882072 Eh  6.955 eV  56093.4 cm**-1
      0.33843 [    20]: 01020
      0.15264 [    22]: 01002
      0.08309 [    11]: 10020
      0.07810 [    12]: 10011
      0.04710 [    28]: 00021
      0.04104 [     0]: 21000
      0.03606 [    17]: 01200
      0.02649 [    16]: 02001
      0.02460 [    10]: 10101
      0.02361 [     3]: 20001
      0.02110 [     6]: 11010
      0.02068 [    18]: 01110
      0.01858 [    21]: 01011
      0.01381 [    29]: 00012
      0.01352 [     2]: 20010
      0.01279 [     4]: 12000
      0.01055 [    13]: 10002
      0.00791 [    24]: 00201
      0.00659 [     8]: 10200
      0.00504 [     7]: 11001
      0.00364 [    15]: 02010
      0.00324 [     9]: 10110
      0.00254 [    23]: 00210
ROOT  38:  E=   -1497.7292147335 Eh  6.965 eV  56175.4 cm**-1
      0.54635 [    27]: 00102
      0.10874 [    14]: 02100
      0.09871 [    19]: 01101
      0.09858 [    25]: 00120
      0.07015 [     1]: 20100
      0.02790 [     7]: 11001
      0.01354 [     2]: 20010
      0.00912 [     4]: 12000
      0.00791 [     6]: 11010
      0.00384 [    13]: 10002
      0.00337 [    12]: 10011
ROOT  39:  E=   -1497.7267274547 Eh  7.033 eV  56721.3 cm**-1
      0.39805 [    11]: 10020
      0.14449 [    13]: 10002
      0.07575 [    21]: 01011
      0.05599 [     4]: 12000
      0.05114 [     8]: 10200
      0.04334 [    20]: 01020
      0.03991 [    22]: 01002
      0.03790 [     9]: 10110
      0.03104 [     2]: 20010
      0.01748 [     6]: 11010
      0.01497 [     0]: 21000
      0.01399 [    15]: 02010
      0.01194 [    28]: 00021
      0.01000 [    19]: 01101
      0.00944 [     7]: 11001
      0.00873 [    17]: 01200
      0.00545 [    27]: 00102
      0.00457 [    14]: 02100
      0.00435 [    18]: 01110
      0.00395 [    26]: 00111
      0.00326 [    12]: 10011
      0.00268 [    23]: 00210

                 <<<<<<<<<<<<<<<<<<INITIAL CI STATE CHECK>>>>>>>>>>>>>>>>>>

   E(CAS)= -1497.938505219 Eh DE=    0.000000e+00
   --- Energy gap subspaces: Ext-Act = 0.286   Act-Int = 0.361
   N(occ)=  0.60000 0.60000 0.60000 0.60000 0.60000
   ||g|| =     1.922659e-04 Max(G)=    5.040782e-05 Rot=42,29
                     ---- THE CAS-SCF GRADIENT HAS CONVERGED ----
                            --- FINALIZING ORBITALS ---
                    ---- DOING ONE FINAL ITERATION FOR PRINTING ----
   --- Canonicalize Active Space
   --- Canonicalize Internal Space
   --- Canonicalize External Space

MACRO-ITERATION   2: 
   --- Inactive Energy E0 = -1492.01525046 Eh
   --- All densities will be recomputed
CI-ITERATION   0: 
 -1498.074033549   0.000000000000 (    0.00)
 -1498.025337135   0.000000000000
 -1498.023397655   0.000000000000
 -1498.023373140   0.000000000000
 -1497.993004285   0.000000000000
 -1497.991784970   0.000000000000
 -1497.990947830   0.000000000000
 -1497.934674505   0.000000000000
 -1497.932857029   0.000000000000
 -1497.930972780   0.000000000000
   CI-PROBLEM SOLVED
   DENSITIES MADE
CI-ITERATION   0: 
 -1497.985168515   0.000000000000 (    0.00)
 -1497.984924490   0.000000000000
 -1497.980551345   0.000000000000
 -1497.980425611   0.000000000000
 -1497.980339241   0.000000000000
 -1497.952303703   0.000000000000
 -1497.952297314   0.000000000000
 -1497.951899942   0.000000000000
 -1497.948729091   0.000000000000
 -1497.936595894   0.000000000000
 -1497.935728234   0.000000000000
 -1497.935252442   0.000000000000
 -1497.931095274   0.000000000000
 -1497.930201639   0.000000000000
 -1497.929748615   0.000000000000
 -1497.920125436   0.000000000000
 -1497.918726560   0.000000000000
 -1497.907138333   0.000000000000
 -1497.906486109   0.000000000000
 -1497.906170734   0.000000000000
 -1497.884351902   0.000000000000
 -1497.884195477   0.000000000000
 -1497.882999350   0.000000000000
 -1497.882993039   0.000000000000
 -1497.882670130   0.000000000000
 -1497.881646749   0.000000000000
 -1497.851204953   0.000000000000
 -1497.849262025   0.000000000000
 -1497.848016428   0.000000000000
 -1497.847634253   0.000000000000
 -1497.846002023   0.000000000000
 -1497.845237645   0.000000000000
 -1497.826200849   0.000000000000
 -1497.825633312   0.000000000000
 -1497.825598615   0.000000000000
 -1497.738253138   0.000000000000
 -1497.737547186   0.000000000000
 -1497.729588207   0.000000000000
 -1497.729214734   0.000000000000
 -1497.726727455   0.000000000000
   CI-PROBLEM SOLVED
   DENSITIES MADE
   E(CAS)= -1497.938505219 Eh DE=    0.000000e+00
   --- Energy gap subspaces: Ext-Act = 0.282   Act-Int = 0.361
   N(occ)=  0.60000 0.60000 0.60000 0.60000 0.60000
   ||g|| =     1.922659e-04 Max(G)=    5.289178e-05 Rot=43,29
--------------
CASSCF RESULTS
--------------

Final CASSCF energy       : -1497.938505219 Eh  -40760.9790 eV

----------------
ORBITAL ENERGIES
----------------

  NO   OCC          E(Eh)            E(eV) 
   0   2.0000    -221.462256     -6026.2943 
   1   2.0000     -27.305617      -743.0236 
   2   2.0000     -23.242396      -632.4578 
   3   2.0000     -23.242292      -632.4549 
   4   2.0000     -23.242284      -632.4547 
   5   2.0000     -21.108222      -574.3839 
   6   2.0000     -21.108203      -574.3834 
   7   2.0000     -21.108192      -574.3831 
   8   2.0000     -21.108157      -574.3821 
   9   2.0000     -21.105678      -574.3147 
  10   2.0000     -21.105666      -574.3144 
  11   2.0000      -4.251307      -115.6839 
  12   2.0000      -2.992359       -81.4262 
  13   2.0000      -2.991568       -81.4047 
  14   2.0000      -2.991241       -81.3958 
  15   2.0000      -1.886669       -51.3389 
  16   2.0000      -1.876374       -51.0587 
  17   2.0000      -1.876023       -51.0492 
  18   2.0000      -1.875989       -51.0482 
  19   2.0000      -1.873354       -50.9766 
  20   2.0000      -1.873058       -50.9685 
  21   2.0000      -1.268249       -34.5108 
  22   2.0000      -1.264532       -34.4097 
  23   2.0000      -1.261805       -34.3355 
  24   2.0000      -1.257514       -34.2187 
  25   2.0000      -1.255484       -34.1635 
  26   2.0000      -1.248258       -33.9668 
  27   2.0000      -1.225709       -33.3532 
  28   2.0000      -1.192513       -32.4499 
  29   2.0000      -1.190254       -32.3885 
  30   2.0000      -1.169250       -31.8169 
  31   2.0000      -1.168702       -31.8020 
  32   2.0000      -1.166936       -31.7539 
  33   2.0000      -1.077282       -29.3143 
  34   2.0000      -1.073926       -29.2230 
  35   2.0000      -1.072084       -29.1729 
  36   2.0000      -1.051290       -28.6071 
  37   2.0000      -1.051137       -28.6029 
  38   2.0000      -1.045363       -28.4458 
  39   0.6000      -0.684701       -18.6317 
  40   0.6000      -0.684009       -18.6128 
  41   0.6000      -0.681372       -18.5411 
  42   0.6000      -0.638922       -17.3859 
  43   0.6000      -0.638637       -17.3782 
  44   0.0000      -0.356272        -9.6947 
  45   0.0000      -0.276589        -7.5264 
  46   0.0000      -0.271995        -7.4014 
  47   0.0000      -0.270432        -7.3588 
  48   0.0000      -0.225300        -6.1307 
  49   0.0000      -0.222667        -6.0591 
  50   0.0000      -0.205684        -5.5970 
  51   0.0000      -0.197758        -5.3813 
  52   0.0000      -0.187661        -5.1065 
  53   0.0000      -0.175362        -4.7718 
  54   0.0000      -0.172078        -4.6825 
  55   0.0000      -0.165383        -4.5003 
  56   0.0000      -0.153260        -4.1704 
  57   0.0000      -0.061976        -1.6865 
  58   0.0000      -0.054094        -1.4720 
  59   0.0000      -0.052611        -1.4316 
  60   0.0000      -0.052253        -1.4219 
  61   0.0000       0.102373         2.7857 
  62   0.0000       0.103462         2.8153 
  63   0.0000       0.141763         3.8576 
  64   0.0000       0.351211         9.5569 
  65   0.0000       0.361230         9.8296 
  66   0.0000       0.364429         9.9166 
  67   0.0000       0.385440        10.4884 
  68   0.0000       0.392553        10.6819 
  69   0.0000       0.411886        11.2080 
  70   0.0000       0.421553        11.4710 
  71   0.0000       0.443443        12.0667 
  72   0.0000       0.445155        12.1133 
  73   0.0000       0.447176        12.1683 
  74   0.0000       0.456854        12.4316 
  75   0.0000       0.475155        12.9296 
  76   0.0000       0.610685        16.6176 
  77   0.0000       0.618444        16.8287 
  78   0.0000       0.660436        17.9714 
  79   0.0000       0.674297        18.3485 
  80   0.0000       0.703410        19.1408 
  81   0.0000       0.763711        20.7816 
  82   0.0000       0.763951        20.7882 
  83   0.0000       0.771135        20.9837 
  84   0.0000       0.797109        21.6904 
  85   0.0000       0.803445        21.8629 
  86   0.0000       0.804744        21.8982 
  87   0.0000       0.808050        21.9882 
  88   0.0000       0.808524        22.0011 
  89   0.0000       0.843442        22.9512 
  90   0.0000       0.845303        23.0019 
  91   0.0000       0.849808        23.1245 
  92   0.0000       0.889149        24.1950 
  93   0.0000       0.895890        24.3784 
  94   0.0000       0.914104        24.8740 
  95   0.0000       0.947570        25.7847 
  96   0.0000       0.953094        25.9350 
  97   0.0000       0.958887        26.0926 
  98   0.0000       1.086429        29.5632 
  99   0.0000       1.087819        29.6011 
 100   0.0000       1.090426        29.6720 
 101   0.0000       1.092689        29.7336 
 102   0.0000       1.096896        29.8480 
 103   0.0000       1.103898        30.0386 
 104   0.0000       1.109058        30.1790 
 105   0.0000       1.119576        30.4652 
 106   0.0000       1.123473        30.5713 
 107   0.0000       1.151538        31.3349 
 108   0.0000       1.287179        35.0259 
 109   0.0000       1.296416        35.2773 
 110   0.0000       1.318933        35.8900 
 111   0.0000       1.355767        36.8923 
 112   0.0000       1.412009        38.4227 
 113   0.0000       1.453322        39.5469 
 114   0.0000       1.533051        41.7164 
 115   0.0000       1.576997        42.9123 
 116   0.0000       1.593361        43.3575 
 117   0.0000       1.601847        43.5885 
 118   0.0000       1.616558        43.9888 
 119   0.0000       1.642020        44.6816 
 120   0.0000       1.726865        46.9904 
 121   0.0000       1.729093        47.0510 
 122   0.0000       1.748308        47.5739 
 123   0.0000       1.754309        47.7372 
 124   0.0000       1.949635        53.0523 
 125   0.0000       1.955256        53.2052 
 126   0.0000       2.031112        55.2694 
 127   0.0000       2.034392        55.3586 
 128   0.0000       2.038113        55.4599 
 129   0.0000       2.045355        55.6569 
 130   0.0000       2.053511        55.8789 
 131   0.0000       2.064826        56.1868 
 132   0.0000       2.078300        56.5534 
 133   0.0000       2.081734        56.6468 
 134   0.0000       2.090345        56.8812 
 135   0.0000       2.093388        56.9640 
 136   0.0000       2.165150        58.9167 
 137   0.0000       2.172043        59.1043 
 138   0.0000       2.611999        71.0761 
 139   0.0000       2.641098        71.8679 
 140   0.0000       2.650415        72.1215 
 141   0.0000       2.652088        72.1670 
 142   0.0000       2.731466        74.3270 
 143   0.0000       2.735644        74.4407 
 144   0.0000       2.744787        74.6894 
 145   0.0000       2.749611        74.8207 
 146   0.0000       2.767793        75.3155 
 147   0.0000       2.768794        75.3427 
 148   0.0000       2.820489        76.7494 
 149   0.0000       2.822516        76.8046 
 150   0.0000       2.823346        76.8271 
 151   0.0000       2.826285        76.9071 
 152   0.0000       2.831386        77.0459 
 153   0.0000       2.842701        77.3538 
 154   0.0000       2.851355        77.5893 
 155   0.0000       2.879791        78.3631 
 156   0.0000       2.879945        78.3673 
 157   0.0000       2.969532        80.8051 
 158   0.0000       3.014331        82.0241 
 159   0.0000       3.014555        82.0302 
 160   0.0000       3.015781        82.0636 
 161   0.0000       3.053622        83.0933 
 162   0.0000       3.057676        83.2036 
 163   0.0000       3.363115        91.5150 
 164   0.0000       3.367352        91.6303 
 165   0.0000       3.369379        91.6855 
 166   0.0000       3.380767        91.9953 
 167   0.0000       3.383715        92.0756 
 168   0.0000       3.393737        92.3483 
 169   0.0000       3.661907        99.6456 
 170   0.0000       3.674817        99.9969 
 171   0.0000       3.676940       100.0546 
 172   0.0000       3.817333       103.8749 
 173   0.0000       3.824482       104.0694 
 174   0.0000       3.834243       104.3350 


---------------------------------------------
CAS-SCF STATES FOR BLOCK  1 MULT= 4 NROOTS=10
---------------------------------------------

ROOT   0:  E=   -1498.0740335493 Eh
      0.99999 [     0]: 11100
ROOT   1:  E=   -1498.0253371347 Eh  1.325 eV  10687.6 cm**-1
      0.77590 [     2]: 11001
      0.22391 [     6]: 01110
ROOT   2:  E=   -1498.0233976552 Eh  1.378 eV  11113.3 cm**-1
      0.98015 [     3]: 10110
      0.01390 [     7]: 01101
      0.00594 [     1]: 11010
ROOT   3:  E=   -1498.0233731402 Eh  1.379 eV  11118.7 cm**-1
      0.70134 [     7]: 01101
      0.27847 [     1]: 11010
      0.01985 [     3]: 10110
ROOT   4:  E=   -1497.9930042852 Eh  2.205 eV  17783.9 cm**-1
      0.45446 [     5]: 10011
      0.38188 [     1]: 11010
      0.16366 [     7]: 01101
ROOT   5:  E=   -1497.9917849701 Eh  2.238 eV  18051.5 cm**-1
      0.53869 [     4]: 10101
      0.46094 [     8]: 01011
ROOT   6:  E=   -1497.9909478297 Eh  2.261 eV  18235.2 cm**-1
      0.45067 [     6]: 01110
      0.42611 [     9]: 00111
      0.12285 [     2]: 11001
ROOT   7:  E=   -1497.9346745052 Eh  3.792 eV  30585.8 cm**-1
      0.54519 [     5]: 10011
      0.33371 [     1]: 11010
      0.12109 [     7]: 01101
ROOT   8:  E=   -1497.9328570288 Eh  3.842 eV  30984.7 cm**-1
      0.53877 [     8]: 01011
      0.46104 [     4]: 10101
ROOT   9:  E=   -1497.9309727795 Eh  3.893 eV  31398.2 cm**-1
      0.57345 [     9]: 00111
      0.32519 [     6]: 01110
      0.10119 [     2]: 11001


---------------------------------------------
CAS-SCF STATES FOR BLOCK  2 MULT= 2 NROOTS=40
---------------------------------------------

ROOT   0:  E=   -1497.9851685149 Eh
      0.54211 [     0]: 21000
      0.39321 [    17]: 01200
      0.03232 [     3]: 20001
      0.01614 [    24]: 00201
      0.00947 [     9]: 10110
      0.00500 [    28]: 00021
ROOT   1:  E=   -1497.9849244902 Eh  0.007 eV     53.6 cm**-1
      0.93601 [     5]: 11100
      0.03828 [    15]: 02010
      0.00914 [    10]: 10101
      0.00697 [     2]: 20010
      0.00510 [    29]: 00012
      0.00447 [    23]: 00210
ROOT   2:  E=   -1497.9805513450 Eh  0.126 eV   1013.4 cm**-1
      0.52476 [     4]: 12000
      0.39442 [     8]: 10200
      0.05094 [     7]: 11001
      0.01527 [    18]: 01110
      0.00643 [    26]: 00111
      0.00519 [    13]: 10002
ROOT   3:  E=   -1497.9804256111 Eh  0.129 eV   1040.9 cm**-1
      0.48013 [     1]: 20100
      0.44493 [    14]: 02100
      0.03644 [    19]: 01101
      0.02438 [     6]: 11010
      0.00672 [    12]: 10011
      0.00402 [    25]: 00120
      0.00337 [    27]: 00102
ROOT   4:  E=   -1497.9803392411 Eh  0.131 eV   1059.9 cm**-1
      0.92356 [     5]: 11100
      0.02575 [     2]: 20010
      0.02381 [    23]: 00210
      0.01440 [    21]: 01011
      0.01193 [    10]: 10101
ROOT   5:  E=   -1497.9523037032 Eh  0.894 eV   7213.0 cm**-1
      0.33397 [     8]: 10200
      0.24566 [     7]: 11001
      0.22938 [     4]: 12000
      0.13408 [    18]: 01110
      0.03813 [    11]: 10020
      0.01339 [    26]: 00111
      0.00538 [    13]: 10002
ROOT   6:  E=   -1497.9522973137 Eh  0.894 eV   7214.4 cm**-1
      0.31762 [    14]: 02100
      0.27998 [     1]: 20100
      0.20820 [    19]: 01101
      0.13674 [     6]: 11010
      0.03253 [    25]: 00120
      0.01418 [    12]: 10011
      0.00986 [    27]: 00102
ROOT   7:  E=   -1497.9518999422 Eh  0.905 eV   7301.6 cm**-1
      0.35278 [    17]: 01200
      0.27121 [     9]: 10110
      0.22858 [     0]: 21000
      0.05500 [    22]: 01002
      0.05297 [     3]: 20001
      0.02974 [    24]: 00201
      0.00687 [    16]: 02001
ROOT   8:  E=   -1497.9487290912 Eh  0.992 eV   7997.5 cm**-1
      0.47299 [     9]: 10110
      0.35237 [    16]: 02001
      0.08438 [    24]: 00201
      0.07994 [     3]: 20001
      0.00526 [    17]: 01200
      0.00351 [     0]: 21000
ROOT   9:  E=   -1497.9365958941 Eh  1.322 eV  10660.5 cm**-1
      0.57105 [     7]: 11001
      0.19959 [    18]: 01110
      0.09245 [     8]: 10200
      0.05776 [     4]: 12000
      0.04236 [    13]: 10002
      0.03590 [    26]: 00111
ROOT  10:  E=   -1497.9357282338 Eh  1.345 eV  10850.9 cm**-1
      0.44285 [     6]: 11010
      0.36502 [    19]: 01101
      0.06676 [    14]: 02100
      0.05031 [    12]: 10011
      0.04476 [     1]: 20100
      0.02938 [    27]: 00102
ROOT  11:  E=   -1497.9352524420 Eh  1.358 eV  10955.3 cm**-1
      0.58718 [     9]: 10110
      0.10616 [    24]: 00201
      0.09199 [     3]: 20001
      0.08053 [    20]: 01020
      0.07633 [    17]: 01200
      0.05259 [     0]: 21000
      0.00421 [    22]: 01002
ROOT  12:  E=   -1497.9310952739 Eh  1.471 eV  11867.7 cm**-1
      0.55230 [     7]: 11001
      0.39476 [    18]: 01110
      0.02550 [     4]: 12000
      0.01915 [    26]: 00111
      0.00761 [     8]: 10200
ROOT  13:  E=   -1497.9302016395 Eh  1.496 eV  12063.8 cm**-1
      0.51978 [     2]: 20010
      0.25351 [    23]: 00210
      0.17440 [    10]: 10101
      0.02885 [     5]: 11100
      0.01972 [    21]: 01011
      0.00356 [    15]: 02010
ROOT  14:  E=   -1497.9297486151 Eh  1.508 eV  12163.3 cm**-1
      0.73083 [    19]: 01101
      0.21583 [     6]: 11010
      0.02685 [     1]: 20100
      0.01807 [    12]: 10011
      0.00443 [    27]: 00102
      0.00353 [    14]: 02100
ROOT  15:  E=   -1497.9201254357 Eh  1.770 eV  14275.3 cm**-1
      0.55192 [    16]: 02001
      0.44377 [     9]: 10110
ROOT  16:  E=   -1497.9187265598 Eh  1.808 eV  14582.3 cm**-1
      0.41488 [    10]: 10101
      0.35262 [    23]: 00210
      0.13943 [     2]: 20010
      0.08766 [    15]: 02010
ROOT  17:  E=   -1497.9071383332 Eh  2.123 eV  17125.6 cm**-1
      0.47060 [     6]: 11010
      0.25236 [    19]: 01101
      0.14362 [    12]: 10011
      0.05779 [    25]: 00120
      0.05299 [    27]: 00102
      0.01281 [     1]: 20100
      0.00982 [    14]: 02100
ROOT  18:  E=   -1497.9064861092 Eh  2.141 eV  17268.8 cm**-1
      0.51459 [    18]: 01110
      0.21519 [     7]: 11001
      0.12301 [    26]: 00111
      0.06378 [    13]: 10002
      0.06372 [    11]: 10020
      0.01027 [     4]: 12000
      0.00911 [     8]: 10200
ROOT  19:  E=   -1497.9061707340 Eh  2.150 eV  17338.0 cm**-1
      0.61685 [    10]: 10101
      0.26225 [    21]: 01011
      0.06169 [    23]: 00210
      0.03890 [     2]: 20010
      0.01944 [     5]: 11100
ROOT  20:  E=   -1497.8843519023 Eh  2.743 eV  22126.7 cm**-1
      0.81883 [    12]: 10011
      0.10709 [    27]: 00102
      0.04101 [    19]: 01101
      0.02765 [    25]: 00120
      0.00260 [     1]: 20100
ROOT  21:  E=   -1497.8841954775 Eh  2.748 eV  22161.0 cm**-1
      0.96580 [    21]: 01011
      0.01486 [    23]: 00210
      0.01384 [     2]: 20010
      0.00507 [     5]: 11100
ROOT  22:  E=   -1497.8829993498 Eh  2.780 eV  22423.5 cm**-1
      0.49290 [    11]: 10020
      0.33027 [    26]: 00111
      0.10339 [    18]: 01110
      0.05776 [     7]: 11001
      0.00965 [    13]: 10002
      0.00585 [     4]: 12000
ROOT  23:  E=   -1497.8829930395 Eh  2.780 eV  22424.9 cm**-1
      0.75442 [    22]: 01002
      0.09172 [     9]: 10110
      0.06512 [     3]: 20001
      0.05636 [    24]: 00201
      0.02655 [    20]: 01020
      0.00328 [     0]: 21000
ROOT  24:  E=   -1497.8826701298 Eh  2.789 eV  22495.8 cm**-1
      0.42788 [    25]: 00120
      0.35484 [    12]: 10011
      0.12577 [     6]: 11010
      0.08324 [    19]: 01101
      0.00475 [    14]: 02100
      0.00280 [     1]: 20100
ROOT  25:  E=   -1497.8816467494 Eh  2.817 eV  22720.4 cm**-1
      0.79698 [    26]: 00111
      0.11110 [    13]: 10002
      0.05968 [     7]: 11001
      0.02251 [    18]: 01110
      0.00704 [     8]: 10200
      0.00263 [    11]: 10020
ROOT  26:  E=   -1497.8512049534 Eh  3.645 eV  29401.6 cm**-1
      0.45345 [    10]: 10101
      0.40573 [    15]: 02010
      0.06399 [    23]: 00210
      0.05608 [     2]: 20010
      0.01922 [    29]: 00012
ROOT  27:  E=   -1497.8492620248 Eh  3.698 eV  29828.0 cm**-1
      0.47700 [    28]: 00021
      0.32276 [     3]: 20001
      0.07240 [     0]: 21000
      0.06020 [    20]: 01020
      0.03103 [    22]: 01002
      0.02082 [     9]: 10110
      0.01253 [    16]: 02001
      0.00261 [    17]: 01200
ROOT  28:  E=   -1497.8480164278 Eh  3.732 eV  30101.4 cm**-1
      0.68946 [    29]: 00012
      0.08248 [    15]: 02010
      0.07577 [    10]: 10101
      0.06228 [    23]: 00210
      0.05513 [     2]: 20010
      0.03390 [     5]: 11100
ROOT  29:  E=   -1497.8476342531 Eh  3.742 eV  30185.3 cm**-1
      0.41002 [     6]: 11010
      0.18615 [    12]: 10011
      0.16434 [    19]: 01101
      0.08336 [    14]: 02100
      0.08038 [     1]: 20100
      0.06146 [    27]: 00102
      0.01425 [    25]: 00120
ROOT  30:  E=   -1497.8460020230 Eh  3.787 eV  30543.5 cm**-1
      0.43370 [    18]: 01110
      0.20823 [    26]: 00111
      0.12961 [     7]: 11001
      0.08369 [     8]: 10200
      0.07641 [     4]: 12000
      0.05435 [    13]: 10002
      0.01391 [    11]: 10020
ROOT  31:  E=   -1497.8452376455 Eh  3.808 eV  30711.3 cm**-1
      0.38846 [    24]: 00201
      0.23789 [    28]: 00021
      0.11841 [    20]: 01020
      0.09219 [    17]: 01200
      0.07334 [     3]: 20001
      0.05080 [    22]: 01002
      0.02511 [     0]: 21000
      0.01027 [     9]: 10110
      0.00350 [    16]: 02001
ROOT  32:  E=   -1497.8262008486 Eh  4.326 eV  34889.4 cm**-1
      0.73476 [    21]: 01011
      0.19387 [    10]: 10101
      0.02873 [    23]: 00210
      0.02246 [     5]: 11100
      0.01971 [     2]: 20010
ROOT  33:  E=   -1497.8256333118 Eh  4.341 eV  35013.9 cm**-1
      0.35694 [    26]: 00111
      0.20590 [    13]: 10002
      0.18169 [    11]: 10020
      0.15386 [    18]: 01110
      0.07955 [     7]: 11001
      0.01157 [     4]: 12000
      0.01048 [     8]: 10200
ROOT  34:  E=   -1497.8255986155 Eh  4.342 eV  35021.5 cm**-1
      0.30898 [    12]: 10011
      0.23291 [    25]: 00120
      0.20813 [    27]: 00102
      0.14727 [     6]: 11010
      0.08071 [    19]: 01101
      0.01239 [     1]: 20100
      0.00960 [    14]: 02100
ROOT  35:  E=   -1497.7382531375 Eh  6.719 eV  54191.7 cm**-1
      0.38167 [    15]: 02010
      0.28423 [    29]: 00012
      0.13398 [    23]: 00210
      0.12437 [     2]: 20010
      0.04903 [    10]: 10101
      0.02668 [     5]: 11100
ROOT  36:  E=   -1497.7375471861 Eh  6.738 eV  54346.6 cm**-1
      0.29011 [    24]: 00201
      0.27888 [     3]: 20001
      0.27445 [    28]: 00021
      0.06965 [    16]: 02001
      0.04778 [     9]: 10110
      0.01953 [     0]: 21000
      0.01020 [    20]: 01020
      0.00800 [    17]: 01200
ROOT  37:  E=   -1497.7295882072 Eh  6.955 eV  56093.4 cm**-1
      0.50201 [    13]: 10002
      0.20324 [    11]: 10020
      0.10962 [    26]: 00111
      0.06087 [     8]: 10200
      0.05817 [     4]: 12000
      0.03808 [     7]: 11001
      0.02802 [    18]: 01110
ROOT  38:  E=   -1497.7292147335 Eh  6.965 eV  56175.4 cm**-1
      0.70203 [    20]: 01020
      0.10132 [    22]: 01002
      0.06623 [    17]: 01200
      0.05178 [     0]: 21000
      0.04437 [     9]: 10110
      0.02747 [    24]: 00201
      0.00380 [    28]: 00021
ROOT  39:  E=   -1497.7267274547 Eh  7.033 eV  56721.3 cm**-1
      0.52255 [    27]: 00102
      0.20183 [    25]: 00120
      0.09825 [    12]: 10011
      0.05780 [    14]: 02100
      0.05704 [     1]: 20100
      0.03752 [    19]: 01101
      0.02499 [     6]: 11010


-----------------------------
SA-CASSCF TRANSITION ENERGIES
------------------------------

LOWEST ROOT (ROOT 0 ,MULT 4) =  -1498.074033549 Eh -40764.667 eV

STATE   ROOT MULT  DE/a.u.    DE/eV    DE/cm**-1
   1:    1    4   0.048696     1.325  10687.6
   2:    2    4   0.050636     1.378  11113.3
   3:    3    4   0.050660     1.379  11118.7
   4:    4    4   0.081029     2.205  17783.9
   5:    5    4   0.082249     2.238  18051.5
   6:    6    4   0.083086     2.261  18235.2
   7:    0    2   0.088865     2.418  19503.6
   8:    1    2   0.089109     2.425  19557.2
   9:    2    2   0.093482     2.544  20517.0
  10:    3    2   0.093608     2.547  20544.6
  11:    4    2   0.093694     2.550  20563.5
  12:    5    2   0.121730     3.312  26716.6
  13:    6    2   0.121736     3.313  26718.0
  14:    7    2   0.122134     3.323  26805.2
  15:    8    2   0.125304     3.410  27501.1
  16:    9    2   0.137438     3.740  30164.1
  17:   10    2   0.138305     3.763  30354.5
[...]
 17 H s       :     0.000843  s :     0.000843
      pz      :     0.000035  p :     0.000130
      px      :     0.000045
      py      :     0.000050
 18 H s       :     0.000844  s :     0.000844
      pz      :     0.000038  p :     0.000130
      px      :     0.000048
      py      :     0.000044


                     *******************************
                     * LOEWDIN POPULATION ANALYSIS *
                     *******************************

-----------------------------------------
LOEWDIN ATOMIC CHARGES AND SPIN DENSITIES
-----------------------------------------
   0 O :    0.020663    0.014611
   1 Cr:    0.926631    1.898275
   2 O :    0.020595    0.014602
   3 O :    0.021784    0.014630
   4 O :    0.021784    0.014630
   5 O :    0.020595    0.014602
   6 O :    0.020663    0.014611
   7 H :    0.163223    0.001170
   8 H :    0.162496    0.001174
   9 H :    0.163223    0.001170
  10 H :    0.162495    0.001174
  11 H :    0.161091    0.001164
  12 H :    0.161137    0.001165
  13 H :    0.163172    0.001170
  14 H :    0.162525    0.001175
  15 H :    0.163171    0.001170
  16 H :    0.162525    0.001175
  17 H :    0.161091    0.001164
  18 H :    0.161137    0.001165

--------------------------------------------------
LOEWDIN REDUCED ORBITAL CHARGES AND SPIN DENSITIES
--------------------------------------------------
CHARGE
  0 O s       :     3.314714  s :     3.314714
      pz      :     1.492126  p :     4.651021
      px      :     1.614907
      py      :     1.543988
      dz2     :     0.000382  d :     0.013601
      dxz     :     0.004514
      dyz     :     0.005823
      dx2y2   :     0.000132
      dxy     :     0.002750
  1 Crs       :     6.293232  s :     6.293232
      pz      :     4.237306  p :    12.714273
      px      :     4.239661
      py      :     4.237306
      dz2     :     0.995015  d :     4.058619
      dxz     :     0.692260
      dyz     :     0.684573
      dx2y2   :     0.994510
      dxy     :     0.692261
      f0      :     0.002057  f :     0.007245
      f+1     :     0.001022
      f-1     :     0.000968
      f+2     :     0.000320
      f-2     :     0.000008
      f+3     :     0.001460
      f-3     :     0.001409
  2 O s       :     3.314746  s :     3.314746
      pz      :     1.490870  p :     4.651060
      px      :     1.582099
      py      :     1.578092
      dz2     :     0.000464  d :     0.013599
      dxz     :     0.005127
      dyz     :     0.005141
      dx2y2   :     0.000025
      dxy     :     0.002842
  3 O s       :     3.314186  s :     3.314186
      pz      :     1.387228  p :     4.650325
      px      :     1.490864
      py      :     1.772233
      dz2     :     0.001174  d :     0.013705
      dxz     :     0.008901
      dyz     :     0.001391
      dx2y2   :     0.000696
      dxy     :     0.001543
  4 O s       :     3.314186  s :     3.314186
      pz      :     1.772275  p :     4.650325
      px      :     1.490864
      py      :     1.387186
      dz2     :     0.001245  d :     0.013705
      dxz     :     0.001542
      dyz     :     0.001390
      dx2y2   :     0.000625
      dxy     :     0.008902
  5 O s       :     3.314746  s :     3.314746
      pz      :     1.578040  p :     4.651060
      px      :     1.582151
      py      :     1.490869
      dz2     :     0.000169  d :     0.013599
      dxz     :     0.002842
      dyz     :     0.005142
      dx2y2   :     0.000321
      dxy     :     0.005126
  6 O s       :     3.314714  s :     3.314714
      pz      :     1.543937  p :     4.651021
      px      :     1.614958
      py      :     1.492126
      dz2     :     0.000203  d :     0.013601
      dxz     :     0.002750
      dyz     :     0.005824
      dx2y2   :     0.000311
      dxy     :     0.004513
  7 H s       :     0.653976  s :     0.653976
      pz      :     0.065426  p :     0.182801
      px      :     0.059564
      py      :     0.057811
  8 H s       :     0.654533  s :     0.654533
      pz      :     0.057325  p :     0.182971
      px      :     0.061680
      py      :     0.063967
  9 H s       :     0.653977  s :     0.653977
      pz      :     0.057813  p :     0.182801
      px      :     0.059562
      py      :     0.065425
 10 H s       :     0.654533  s :     0.654533
      pz      :     0.063969  p :     0.182971
      px      :     0.061677
      py      :     0.057325
 11 H s       :     0.655914  s :     0.655914
      pz      :     0.067292  p :     0.182995
      px      :     0.062698
      py      :     0.053004
 12 H s       :     0.655869  s :     0.655869
      pz      :     0.071605  p :     0.182995
      px      :     0.060220
      py      :     0.051169
 13 H s       :     0.654023  s :     0.654023
      pz      :     0.061930  p :     0.182805
      px      :     0.061546
      py      :     0.059330
 14 H s       :     0.654503  s :     0.654503
      pz      :     0.060568  p :     0.182972
      px      :     0.056820
      py      :     0.065583
 15 H s       :     0.654023  s :     0.654023
      pz      :     0.059332  p :     0.182805
      px      :     0.061543
      py      :     0.061930
 16 H s       :     0.654503  s :     0.654503
      pz      :     0.065586  p :     0.182972
      px      :     0.056818
      py      :     0.060568
 17 H s       :     0.655914  s :     0.655914
      pz      :     0.053002  p :     0.182995
      px      :     0.062698
      py      :     0.067294
 18 H s       :     0.655869  s :     0.655869
      pz      :     0.051167  p :     0.182995
      px      :     0.060220
      py      :     0.071608

SPIN
  0 O s       :     0.002866  s :     0.002866
      pz      :     0.007739  p :     0.011473
      px      :     0.002065
      py      :     0.001669
      dz2     :     0.000156  d :     0.000272
      dxz     :     0.000042
      dyz     :     0.000048
      dx2y2   :     0.000001
      dxy     :     0.000025
  1 Crs       :     0.000000  s :     0.000000
      pz      :     0.000027  p :     0.000082
      px      :     0.000029
      py      :     0.000027
      dz2     :     0.363334  d :     1.898186
      dxz     :     0.390221
      dyz     :     0.391031
      dx2y2   :     0.363379
      dxy     :     0.390221
      f0      :     0.000001  f :     0.000007
      f+1     :     0.000002
      f-1     :     0.000001
      f+2     :     0.000000
      f-2     :     0.000000
      f+3     :     0.000002
      f-3     :     0.000001
  2 O s       :     0.002865  s :     0.002865
      pz      :     0.007683  p :     0.011466
      px      :     0.001918
      py      :     0.001865
      dz2     :     0.000154  d :     0.000272
      dxz     :     0.000046
      dyz     :     0.000045
      dx2y2   :     0.000000
      dxy     :     0.000026
  3 O s       :     0.002868  s :     0.002868
      pz      :     0.000719  p :     0.011493
      px      :     0.007675
      py      :     0.003099
      dz2     :     0.000010  d :     0.000269
      dxz     :     0.000057
      dyz     :     0.000013
      dx2y2   :     0.000159
      dxy     :     0.000031
  4 O s       :     0.002868  s :     0.002868
      pz      :     0.003100  p :     0.011493
      px      :     0.007675
      py      :     0.000719
      dz2     :     0.000089  d :     0.000269
      dxz     :     0.000031
      dyz     :     0.000013
      dx2y2   :     0.000080
      dxy     :     0.000057
  5 O s       :     0.002865  s :     0.002865
      pz      :     0.001864  p :     0.011466
      px      :     0.001918
      py      :     0.007683
      dz2     :     0.000039  d :     0.000272
      dxz     :     0.000026
      dyz     :     0.000045
      dx2y2   :     0.000116
      dxy     :     0.000046
  6 O s       :     0.002866  s :     0.002866
      pz      :     0.001668  p :     0.011473
      px      :     0.002065
      py      :     0.007739
      dz2     :     0.000032  d :     0.000272
      dxz     :     0.000025
      dyz     :     0.000048
      dx2y2   :     0.000124
      dxy     :     0.000042
  7 H s       :     0.000686  s :     0.000686
      pz      :     0.000283  p :     0.000484
      px      :     0.000109
      py      :     0.000093
  8 H s       :     0.000686  s :     0.000686
      pz      :     0.000308  p :     0.000488
      px      :     0.000086
      py      :     0.000094
  9 H s       :     0.000686  s :     0.000686
      pz      :     0.000093  p :     0.000484
      px      :     0.000109
      py      :     0.000283
 10 H s       :     0.000686  s :     0.000686
      pz      :     0.000094  p :     0.000488
      px      :     0.000086
      py      :     0.000308
 11 H s       :     0.000678  s :     0.000678
      pz      :     0.000062  p :     0.000486
      px      :     0.000291
      py      :     0.000133
 12 H s       :     0.000679  s :     0.000679
      pz      :     0.000050  p :     0.000486
      px      :     0.000297
      py      :     0.000139
 13 H s       :     0.000685  s :     0.000685
      pz      :     0.000295  p :     0.000485
      px      :     0.000103
      py      :     0.000086
 14 H s       :     0.000687  s :     0.000687
      pz      :     0.000302  p :     0.000488
      px      :     0.000099
      py      :     0.000087
 15 H s       :     0.000685  s :     0.000685
      pz      :     0.000086  p :     0.000485
      px      :     0.000103
      py      :     0.000295
 16 H s       :     0.000687  s :     0.000687
      pz      :     0.000087  p :     0.000488
      px      :     0.000099
      py      :     0.000302
 17 H s       :     0.000678  s :     0.000678
      pz      :     0.000133  p :     0.000486
      px      :     0.000291
      py      :     0.000062
 18 H s       :     0.000679  s :     0.000679
      pz      :     0.000139  p :     0.000486
      px      :     0.000297
      py      :     0.000050


                      *****************************
                      * MAYER POPULATION ANALYSIS *
                      *****************************

  NA   - Mulliken gross atomic population
  ZA   - Total nuclear charge
  QA   - Mulliken gross atomic charge
  VA   - Mayer's total valence
  BVA  - Mayer's bonded valence
  FA   - Mayer's free valence

  ATOM       NA         ZA         QA         VA         BVA        FA
  0 O      8.3916     8.0000    -0.3916     2.2099     2.1890     0.0210
  1 Cr    22.2613    24.0000     1.7387     6.2391     2.2505     3.9886
  2 O      8.3916     8.0000    -0.3916     2.2099     2.1889     0.0209
  3 O      8.3874     8.0000    -0.3874     2.2120     2.1910     0.0210
  4 O      8.3874     8.0000    -0.3874     2.2120     2.1910     0.0210
  5 O      8.3916     8.0000    -0.3916     2.2099     2.1889     0.0209
  6 O      8.3916     8.0000    -0.3916     2.2099     2.1890     0.0210
  7 H      0.6985     1.0000     0.3015     0.9342     0.9325     0.0017
  8 H      0.6994     1.0000     0.3006     0.9346     0.9329     0.0017
  9 H      0.6985     1.0000     0.3015     0.9342     0.9325     0.0017
 10 H      0.6994     1.0000     0.3006     0.9346     0.9329     0.0017
 11 H      0.7015     1.0000     0.2985     0.9369     0.9352     0.0017
 12 H      0.7015     1.0000     0.2985     0.9369     0.9352     0.0017
 13 H      0.6986     1.0000     0.3014     0.9342     0.9326     0.0017
 14 H      0.6993     1.0000     0.3007     0.9345     0.9329     0.0017
 15 H      0.6986     1.0000     0.3014     0.9342     0.9326     0.0017
 16 H      0.6993     1.0000     0.3007     0.9345     0.9329     0.0017
 17 H      0.7015     1.0000     0.2985     0.9369     0.9352     0.0017
 18 H      0.7015     1.0000     0.2985     0.9369     0.9352     0.0017

  Mayer bond orders larger than 0.100000
B(  0-O ,  1-Cr) :   0.3590 B(  0-O , 13-H ) :   0.9113 B(  0-O , 14-H ) :   0.9118 
B(  1-Cr,  2-O ) :   0.3590 B(  1-Cr,  3-O ) :   0.3608 B(  1-Cr,  4-O ) :   0.3608 
B(  1-Cr,  5-O ) :   0.3590 B(  1-Cr,  6-O ) :   0.3590 B(  2-O ,  7-H ) :   0.9112 
B(  2-O ,  8-H ) :   0.9118 B(  3-O , 11-H ) :   0.9130 B(  3-O , 12-H ) :   0.9130 
B(  4-O , 17-H ) :   0.9130 B(  4-O , 18-H ) :   0.9130 B(  5-O ,  9-H ) :   0.9112 
B(  5-O , 10-H ) :   0.9118 B(  6-O , 15-H ) :   0.9113 B(  6-O , 16-H ) :   0.9118 



-------------------------------------------------------------
 Forming the transition density       ... done in 0.026603 sec
-------------------------------------------------------------



==========================================
CASSCF UV, CD spectra and dipole moments
==========================================
-------------------
ABSORPTION SPECTRUM
-------------------

Center of mass           = (  0.0000,  0.0004, -0.0004)
Nuclear contribution to the dipole moment =     0.000005,   -0.001448,    0.001446 au

Calculating the Dipole integrals                  ... done
Transforming integrals                            ... done
Calculating the Linear Momentum integrals         ... done
Transforming integrals                            ... done
Calculating the Angular Momentum integrals        ... done
Transforming integrals                            ... done

------------------------------------------------------------------------------------------
                                ABSORPTION SPECTRUM
------------------------------------------------------------------------------------------
  States           Energy   Wavelength   fosc          T2        TX         TY        TZ  
                   (cm-1)     (nm)                   (D**2)      (D)        (D)       (D) 
------------------------------------------------------------------------------------------
  0( 0)-> 1( 0) 4   10687.6    935.7   0.000007806   0.00155   0.00000  -0.02785   0.02785
  0( 0)-> 2( 0) 4   11113.3    899.8   0.000001917   0.00037  -0.01906   0.00122   0.00122
  0( 0)-> 3( 0) 4   11118.7    899.4   0.000002268   0.00043  -0.00188  -0.01465  -0.01466
  0( 0)-> 4( 0) 4   17783.9    562.3   0.000000531   0.00006  -0.00030   0.00563   0.00563
  0( 0)-> 5( 0) 4   18051.5    554.0   0.000000001   0.00000  -0.00000  -0.00022   0.00022
  0( 0)-> 6( 0) 4   18235.2    548.4   0.000004256   0.00050   0.00000   0.01574  -0.01574
  0( 0)-> 7( 0) 4   30585.8    326.9   0.000000673   0.00005   0.00025  -0.00483  -0.00483
  0( 0)-> 8( 0) 4   30984.7    322.7   0.000000002   0.00000  -0.00000   0.00026  -0.00026
  0( 0)-> 9( 0) 4   31398.2    318.5   0.000005139   0.00035  -0.00000  -0.01318   0.01318
------------------------------------------------------------------------------------------



------------------------------------------------------------------------------
                             CD SPECTRUM
------------------------------------------------------------------------------
      States        Energy   Wavelength   R*T        RX        RY        RZ   
                    (cm-1)      (nm)   (1e40*sgs)   (au)      (au)      (au)  
------------------------------------------------------------------------------
  0( 0)-> 1( 0) 4   10687.6    935.7    -6.52840   0.00000   0.63194  -0.63197
  0( 0)-> 2( 0) 4   11113.3    899.8     3.17507  -0.89036   0.05982   0.05982
  0( 0)-> 3( 0) 4   11118.7    899.4     3.44300  -0.08475  -0.62790  -0.62787
  0( 0)-> 4( 0) 4   17783.9    562.3     0.05412  -0.00162   0.02588   0.02588
  0( 0)-> 5( 0) 4   18051.5    554.0    -0.00003   0.00000   0.00041  -0.00041
  0( 0)-> 6( 0) 4   18235.2    548.4    -0.11618   0.00000  -0.01990   0.01990
  0( 0)-> 7( 0) 4   30585.8    326.9     0.01591   0.00058  -0.00887  -0.00887
  0( 0)-> 8( 0) 4   30984.7    322.7    -0.00001   0.00000  -0.00010   0.00010
  0( 0)-> 9( 0) 4   31398.2    318.5    -0.03354  -0.00000   0.00686  -0.00686
------------------------------------------------------------------------------

------------------------------------------------------------------------------
                                 DIPOLE MOMENTS
------------------------------------------------------------------------------
  Root  Block           TX        TY        TZ           |T|
                      (Debye)   (Debye)   (Debye)      (Debye)
------------------------------------------------------------------------------
    0    0            0.00002   0.00027  -0.00027      0.00038

--------------
CASSCF TIMINGS
--------------

Total time                       ...       24.8 sec
Sum of individual times          ...       24.6 sec ( 99.1%)

Calculation of AO operators
   F(Core) operator              ...        5.9 sec ( 23.8%)
   G(Act) operator               ...        5.0 sec ( 20.3%)
   J(AO) operators               ...        0.0 sec (  0.0%)
Calculation of MO transformed quantities
   J(MO) operators               ...       13.6 sec ( 54.8%)
   (pq|rs) integrals             ...        0.0 sec (  0.0%)
   AO->MO one electron integrals ...        0.0 sec (  0.0%)
Configuration interaction steps
   CI-setup phase                ...        0.0 sec (  0.0%)
   CI-solution phase             ...        0.0 sec (  0.1%)
   Generation of densities       ...        0.0 sec (  0.0%)
Orbital improvement steps
   Orbital gradient              ...        0.0 sec (  0.0%)
Properties                       ...        0.0 sec (  0.1%)
   SOC integral calculation      ...        0.0 sec (  0.0%)
   SSC RMEs (incl. integrals)    ...        0.0 sec (  0.0%)
   SOC RMEs                      ...        0.0 sec (  0.0%)

Maximum memory used throughout the entire CASSCF-calculation: 104.3 MB

-------------------------   --------------------
FINAL SINGLE POINT ENERGY     -1497.938505218812
-------------------------   --------------------


                            ***************************************
                            *     ORCA property calculations      *
                            ***************************************

                                    ---------------------
                                    Active property flags
                                    ---------------------
   (+) Dipole Moment


------------------------------------------------------------------------------
                       ORCA ELECTRIC PROPERTIES CALCULATION
------------------------------------------------------------------------------

Dipole Moment Calculation                       ... on
Quadrupole Moment Calculation                   ... off
Polarizability Calculation                      ... off
GBWName                                         ... single-point-calc.gbw
Electron density                                ... single-point-calc.scfp
The origin for moment calculation is the CENTER OF MASS  = ( 0.000003,  0.000392 -0.000393)

-------------
DIPOLE MOMENT
-------------
                                X             Y             Z
Electronic contribution:      0.00000       0.00163      -0.00163
Nuclear contribution   :      0.00000      -0.00145       0.00145
                        -----------------------------------------
Total Dipole Moment    :      0.00001       0.00018      -0.00018
                        -----------------------------------------
Magnitude (a.u.)       :      0.00026
Magnitude (Debye)      :      0.00066



--------------------
Rotational spectrum 
--------------------
 
Rotational constants in cm-1:     0.049443     0.049266     0.048743 
Rotational constants in MHz :  1482.265466  1476.946025  1461.285970 

 Dipole components along the rotational axes: 
x,y,z [a.u.] :     0.000259     0.000008    -0.000001 
x,y,z [Debye]:     0.000659     0.000020    -0.000002 

 

Timings for individual modules:

Sum of individual times         ...       26.832 sec (=   0.447 min)
GTO integral calculation        ...        0.102 sec (=   0.002 min)   0.4 %
SCF iterations                  ...        0.072 sec (=   0.001 min)   0.3 %
CASSCF iterations               ...       26.658 sec (=   0.444 min)  99.4 %
                             ****ORCA TERMINATED NORMALLY****
TOTAL RUN TIME: 0 days 0 hours 0 minutes 26 seconds 901 msec
